n -t * -s 0  -x 200 -y 100 -Z 0 -z 30  -v circle -c black
n -t * -s 1  -x 200 -y 300 -Z 0 -z 30  -v circle -c black
n -t * -s 2  -x 100 -y 300 -Z 0 -z 30  -v circle -c black
n -t * -s 3  -x 100 -y 100 -Z 0 -z 30  -v circle -c black
V -t * -v 1.0a5 -a 0
W -t * -x 500 -y 400
A -t * -n 1 -p 0 -o 0x7fffffff -c 30 -a 1
A -t * -h 1 -m 1073741823 -s 0
n -t 0.1 -s 0 -S COLOR -c blue -o black -i blue -I black
n -t 0.1 -s 1 -S COLOR -c red -o black -i red -I black
n -t 0.1 -s 2 -S COLOR -c green -o black -i green -I black
n -t 0.1 -s 3 -S COLOR -c yellow -o black -i yellow -I black
n -t 0.10000000000000001 -s 0 -S DLABEL -l "N1" -L ""
n -t 0.10000000000000001 -s 1 -S DLABEL -l "N2" -L ""
n -t 0.10000000000000001 -s 2 -S DLABEL -l "N3" -L ""
n -t 0.10000000000000001 -s 3 -S DLABEL -l "N4" -L ""
+ -t 1.000000000 -s 0 -d -1 -p cbr -e 210 -c 2 -a 0 -i 0 -k AGT 
- -t 1.000000000 -s 0 -d -1 -p cbr -e 210 -c 2 -a 0 -i 0 -k AGT
h -t 1.000000000 -s 0 -d -1 -p cbr -e 210 -c 2 -a 0 -i 0 -k AGT
+ -t 1.000000000 -s 0 -d -1 -p AODV -e 48 -c 2 -a 0 -i 0 -k RTR 
- -t 1.000000000 -s 0 -d -1 -p AODV -e 48 -c 2 -a 0 -i 0 -k RTR
h -t 1.000000000 -s 0 -d -1 -p AODV -e 48 -c 2 -a 0 -i 0 -k RTR
r -t 1.001408333 -s 3 -d -1 -p AODV -e 48 -c 2 -a 0 -i 0 -k RTR
+ -t 1.001408333 -s 3 -d 0 -p AODV -e 44 -c 2 -a 0 -i 0 -k RTR 
- -t 1.001408333 -s 3 -d 0 -p AODV -e 44 -c 2 -a 0 -i 0 -k RTR
h -t 1.001408333 -s 3 -d 0 -p AODV -e 44 -c 2 -a 0 -i 0 -k RTR
r -t 1.001408667 -s 1 -d -1 -p AODV -e 48 -c 2 -a 0 -i 0 -k RTR
r -t 1.001408745 -s 2 -d -1 -p AODV -e 48 -c 2 -a 0 -i 0 -k RTR
+ -t 1.001550713 -s 1 -d -1 -p AODV -e 48 -c 2 -a 0 -i 0 -k RTR 
- -t 1.001550713 -s 1 -d -1 -p AODV -e 48 -c 2 -a 0 -i 0 -k RTR
h -t 1.001550713 -s 1 -d -1 -p AODV -e 48 -c 2 -a 0 -i 0 -k RTR
+ -t 1.002289972 -s 2 -d -1 -p AODV -e 48 -c 2 -a 0 -i 0 -k RTR 
- -t 1.002289972 -s 2 -d -1 -p AODV -e 48 -c 2 -a 0 -i 0 -k RTR
h -t 1.002289972 -s 2 -d -1 -p AODV -e 48 -c 2 -a 0 -i 0 -k RTR
r -t 1.002499047 -s 2 -d -1 -p AODV -e 48 -c 2 -a 0 -i 0 -k RTR
r -t 1.002499380 -s 0 -d -1 -p AODV -e 48 -c 2 -a 0 -i 0 -k RTR
r -t 1.002499459 -s 3 -d -1 -p AODV -e 48 -c 2 -a 0 -i 0 -k RTR
r -t 1.003557380 -s 1 -d -1 -p AODV -e 48 -c 2 -a 0 -i 0 -k RTR
+ -t 1.003750000 -s 0 -d -1 -p cbr -e 210 -c 2 -a 0 -i 1 -k AGT 
- -t 1.003750000 -s 0 -d -1 -p cbr -e 210 -c 2 -a 0 -i 1 -k AGT
h -t 1.003750000 -s 0 -d -1 -p cbr -e 210 -c 2 -a 0 -i 1 -k AGT
+ -t 1.007500000 -s 0 -d -1 -p cbr -e 210 -c 2 -a 0 -i 2 -k AGT 
- -t 1.007500000 -s 0 -d -1 -p cbr -e 210 -c 2 -a 0 -i 2 -k AGT
h -t 1.007500000 -s 0 -d -1 -p cbr -e 210 -c 2 -a 0 -i 2 -k AGT
+ -t 1.011250000 -s 0 -d -1 -p cbr -e 210 -c 2 -a 0 -i 3 -k AGT 
- -t 1.011250000 -s 0 -d -1 -p cbr -e 210 -c 2 -a 0 -i 3 -k AGT
h -t 1.011250000 -s 0 -d -1 -p cbr -e 210 -c 2 -a 0 -i 3 -k AGT
+ -t 1.015000000 -s 0 -d -1 -p cbr -e 210 -c 2 -a 0 -i 4 -k AGT 
- -t 1.015000000 -s 0 -d -1 -p cbr -e 210 -c 2 -a 0 -i 4 -k AGT
h -t 1.015000000 -s 0 -d -1 -p cbr -e 210 -c 2 -a 0 -i 4 -k AGT
+ -t 1.018750000 -s 0 -d -1 -p cbr -e 210 -c 2 -a 0 -i 5 -k AGT 
- -t 1.018750000 -s 0 -d -1 -p cbr -e 210 -c 2 -a 0 -i 5 -k AGT
h -t 1.018750000 -s 0 -d -1 -p cbr -e 210 -c 2 -a 0 -i 5 -k AGT
+ -t 1.022500000 -s 0 -d -1 -p cbr -e 210 -c 2 -a 0 -i 6 -k AGT 
- -t 1.022500000 -s 0 -d -1 -p cbr -e 210 -c 2 -a 0 -i 6 -k AGT
h -t 1.022500000 -s 0 -d -1 -p cbr -e 210 -c 2 -a 0 -i 6 -k AGT
+ -t 1.026250000 -s 0 -d -1 -p cbr -e 210 -c 2 -a 0 -i 7 -k AGT 
- -t 1.026250000 -s 0 -d -1 -p cbr -e 210 -c 2 -a 0 -i 7 -k AGT
h -t 1.026250000 -s 0 -d -1 -p cbr -e 210 -c 2 -a 0 -i 7 -k AGT
+ -t 1.030000000 -s 0 -d -1 -p cbr -e 210 -c 2 -a 0 -i 8 -k AGT 
- -t 1.030000000 -s 0 -d -1 -p cbr -e 210 -c 2 -a 0 -i 8 -k AGT
h -t 1.030000000 -s 0 -d -1 -p cbr -e 210 -c 2 -a 0 -i 8 -k AGT
+ -t 1.033750000 -s 0 -d -1 -p cbr -e 210 -c 2 -a 0 -i 9 -k AGT 
- -t 1.033750000 -s 0 -d -1 -p cbr -e 210 -c 2 -a 0 -i 9 -k AGT
h -t 1.033750000 -s 0 -d -1 -p cbr -e 210 -c 2 -a 0 -i 9 -k AGT
+ -t 1.037500000 -s 0 -d -1 -p cbr -e 210 -c 2 -a 0 -i 10 -k AGT 
- -t 1.037500000 -s 0 -d -1 -p cbr -e 210 -c 2 -a 0 -i 10 -k AGT
h -t 1.037500000 -s 0 -d -1 -p cbr -e 210 -c 2 -a 0 -i 10 -k AGT
+ -t 1.041250000 -s 0 -d -1 -p cbr -e 210 -c 2 -a 0 -i 11 -k AGT 
- -t 1.041250000 -s 0 -d -1 -p cbr -e 210 -c 2 -a 0 -i 11 -k AGT
h -t 1.041250000 -s 0 -d -1 -p cbr -e 210 -c 2 -a 0 -i 11 -k AGT
+ -t 1.045000000 -s 0 -d -1 -p cbr -e 210 -c 2 -a 0 -i 12 -k AGT 
- -t 1.045000000 -s 0 -d -1 -p cbr -e 210 -c 2 -a 0 -i 12 -k AGT
h -t 1.045000000 -s 0 -d -1 -p cbr -e 210 -c 2 -a 0 -i 12 -k AGT
+ -t 1.048750000 -s 0 -d -1 -p cbr -e 210 -c 2 -a 0 -i 13 -k AGT 
- -t 1.048750000 -s 0 -d -1 -p cbr -e 210 -c 2 -a 0 -i 13 -k AGT
h -t 1.048750000 -s 0 -d -1 -p cbr -e 210 -c 2 -a 0 -i 13 -k AGT
+ -t 1.052500000 -s 0 -d -1 -p cbr -e 210 -c 2 -a 0 -i 14 -k AGT 
- -t 1.052500000 -s 0 -d -1 -p cbr -e 210 -c 2 -a 0 -i 14 -k AGT
h -t 1.052500000 -s 0 -d -1 -p cbr -e 210 -c 2 -a 0 -i 14 -k AGT
+ -t 1.056250000 -s 0 -d -1 -p cbr -e 210 -c 2 -a 0 -i 15 -k AGT 
- -t 1.056250000 -s 0 -d -1 -p cbr -e 210 -c 2 -a 0 -i 15 -k AGT
h -t 1.056250000 -s 0 -d -1 -p cbr -e 210 -c 2 -a 0 -i 15 -k AGT
+ -t 1.060000000 -s 0 -d -1 -p cbr -e 210 -c 2 -a 0 -i 16 -k AGT 
- -t 1.060000000 -s 0 -d -1 -p cbr -e 210 -c 2 -a 0 -i 16 -k AGT
h -t 1.060000000 -s 0 -d -1 -p cbr -e 210 -c 2 -a 0 -i 16 -k AGT
+ -t 1.063750000 -s 0 -d -1 -p cbr -e 210 -c 2 -a 0 -i 17 -k AGT 
- -t 1.063750000 -s 0 -d -1 -p cbr -e 210 -c 2 -a 0 -i 17 -k AGT
h -t 1.063750000 -s 0 -d -1 -p cbr -e 210 -c 2 -a 0 -i 17 -k AGT
+ -t 1.067500000 -s 0 -d -1 -p cbr -e 210 -c 2 -a 0 -i 18 -k AGT 
- -t 1.067500000 -s 0 -d -1 -p cbr -e 210 -c 2 -a 0 -i 18 -k AGT
h -t 1.067500000 -s 0 -d -1 -p cbr -e 210 -c 2 -a 0 -i 18 -k AGT
+ -t 1.071250000 -s 0 -d -1 -p cbr -e 210 -c 2 -a 0 -i 19 -k AGT 
- -t 1.071250000 -s 0 -d -1 -p cbr -e 210 -c 2 -a 0 -i 19 -k AGT
h -t 1.071250000 -s 0 -d -1 -p cbr -e 210 -c 2 -a 0 -i 19 -k AGT
+ -t 1.075000000 -s 0 -d -1 -p cbr -e 210 -c 2 -a 0 -i 20 -k AGT 
- -t 1.075000000 -s 0 -d -1 -p cbr -e 210 -c 2 -a 0 -i 20 -k AGT
h -t 1.075000000 -s 0 -d -1 -p cbr -e 210 -c 2 -a 0 -i 20 -k AGT
+ -t 1.078750000 -s 0 -d -1 -p cbr -e 210 -c 2 -a 0 -i 21 -k AGT 
- -t 1.078750000 -s 0 -d -1 -p cbr -e 210 -c 2 -a 0 -i 21 -k AGT
h -t 1.078750000 -s 0 -d -1 -p cbr -e 210 -c 2 -a 0 -i 21 -k AGT
+ -t 1.082500000 -s 0 -d -1 -p cbr -e 210 -c 2 -a 0 -i 22 -k AGT 
- -t 1.082500000 -s 0 -d -1 -p cbr -e 210 -c 2 -a 0 -i 22 -k AGT
h -t 1.082500000 -s 0 -d -1 -p cbr -e 210 -c 2 -a 0 -i 22 -k AGT
+ -t 1.086250000 -s 0 -d -1 -p cbr -e 210 -c 2 -a 0 -i 23 -k AGT 
- -t 1.086250000 -s 0 -d -1 -p cbr -e 210 -c 2 -a 0 -i 23 -k AGT
h -t 1.086250000 -s 0 -d -1 -p cbr -e 210 -c 2 -a 0 -i 23 -k AGT
+ -t 1.090000000 -s 0 -d -1 -p cbr -e 210 -c 2 -a 0 -i 24 -k AGT 
- -t 1.090000000 -s 0 -d -1 -p cbr -e 210 -c 2 -a 0 -i 24 -k AGT
h -t 1.090000000 -s 0 -d -1 -p cbr -e 210 -c 2 -a 0 -i 24 -k AGT
+ -t 1.093750000 -s 0 -d -1 -p cbr -e 210 -c 2 -a 0 -i 25 -k AGT 
- -t 1.093750000 -s 0 -d -1 -p cbr -e 210 -c 2 -a 0 -i 25 -k AGT
h -t 1.093750000 -s 0 -d -1 -p cbr -e 210 -c 2 -a 0 -i 25 -k AGT
+ -t 1.097500000 -s 0 -d -1 -p cbr -e 210 -c 2 -a 0 -i 26 -k AGT 
- -t 1.097500000 -s 0 -d -1 -p cbr -e 210 -c 2 -a 0 -i 26 -k AGT
h -t 1.097500000 -s 0 -d -1 -p cbr -e 210 -c 2 -a 0 -i 26 -k AGT
+ -t 1.101250000 -s 0 -d -1 -p cbr -e 210 -c 2 -a 0 -i 27 -k AGT 
- -t 1.101250000 -s 0 -d -1 -p cbr -e 210 -c 2 -a 0 -i 27 -k AGT
h -t 1.101250000 -s 0 -d -1 -p cbr -e 210 -c 2 -a 0 -i 27 -k AGT
+ -t 1.105000000 -s 0 -d -1 -p cbr -e 210 -c 2 -a 0 -i 28 -k AGT 
- -t 1.105000000 -s 0 -d -1 -p cbr -e 210 -c 2 -a 0 -i 28 -k AGT
h -t 1.105000000 -s 0 -d -1 -p cbr -e 210 -c 2 -a 0 -i 28 -k AGT
+ -t 1.108750000 -s 0 -d -1 -p cbr -e 210 -c 2 -a 0 -i 29 -k AGT 
- -t 1.108750000 -s 0 -d -1 -p cbr -e 210 -c 2 -a 0 -i 29 -k AGT
h -t 1.108750000 -s 0 -d -1 -p cbr -e 210 -c 2 -a 0 -i 29 -k AGT
+ -t 1.112500000 -s 0 -d -1 -p cbr -e 210 -c 2 -a 0 -i 30 -k AGT 
- -t 1.112500000 -s 0 -d -1 -p cbr -e 210 -c 2 -a 0 -i 30 -k AGT
h -t 1.112500000 -s 0 -d -1 -p cbr -e 210 -c 2 -a 0 -i 30 -k AGT
+ -t 1.116250000 -s 0 -d -1 -p cbr -e 210 -c 2 -a 0 -i 31 -k AGT 
- -t 1.116250000 -s 0 -d -1 -p cbr -e 210 -c 2 -a 0 -i 31 -k AGT
h -t 1.116250000 -s 0 -d -1 -p cbr -e 210 -c 2 -a 0 -i 31 -k AGT
+ -t 1.120000000 -s 0 -d -1 -p cbr -e 210 -c 2 -a 0 -i 32 -k AGT 
- -t 1.120000000 -s 0 -d -1 -p cbr -e 210 -c 2 -a 0 -i 32 -k AGT
h -t 1.120000000 -s 0 -d -1 -p cbr -e 210 -c 2 -a 0 -i 32 -k AGT
+ -t 1.123750000 -s 0 -d -1 -p cbr -e 210 -c 2 -a 0 -i 33 -k AGT 
- -t 1.123750000 -s 0 -d -1 -p cbr -e 210 -c 2 -a 0 -i 33 -k AGT
h -t 1.123750000 -s 0 -d -1 -p cbr -e 210 -c 2 -a 0 -i 33 -k AGT
+ -t 1.127500000 -s 0 -d -1 -p cbr -e 210 -c 2 -a 0 -i 34 -k AGT 
- -t 1.127500000 -s 0 -d -1 -p cbr -e 210 -c 2 -a 0 -i 34 -k AGT
h -t 1.127500000 -s 0 -d -1 -p cbr -e 210 -c 2 -a 0 -i 34 -k AGT
+ -t 1.131250000 -s 0 -d -1 -p cbr -e 210 -c 2 -a 0 -i 35 -k AGT 
- -t 1.131250000 -s 0 -d -1 -p cbr -e 210 -c 2 -a 0 -i 35 -k AGT
h -t 1.131250000 -s 0 -d -1 -p cbr -e 210 -c 2 -a 0 -i 35 -k AGT
+ -t 1.135000000 -s 0 -d -1 -p cbr -e 210 -c 2 -a 0 -i 36 -k AGT 
- -t 1.135000000 -s 0 -d -1 -p cbr -e 210 -c 2 -a 0 -i 36 -k AGT
h -t 1.135000000 -s 0 -d -1 -p cbr -e 210 -c 2 -a 0 -i 36 -k AGT
+ -t 1.138750000 -s 0 -d -1 -p cbr -e 210 -c 2 -a 0 -i 37 -k AGT 
- -t 1.138750000 -s 0 -d -1 -p cbr -e 210 -c 2 -a 0 -i 37 -k AGT
h -t 1.138750000 -s 0 -d -1 -p cbr -e 210 -c 2 -a 0 -i 37 -k AGT
+ -t 1.142500000 -s 0 -d -1 -p cbr -e 210 -c 2 -a 0 -i 38 -k AGT 
- -t 1.142500000 -s 0 -d -1 -p cbr -e 210 -c 2 -a 0 -i 38 -k AGT
h -t 1.142500000 -s 0 -d -1 -p cbr -e 210 -c 2 -a 0 -i 38 -k AGT
+ -t 1.146250000 -s 0 -d -1 -p cbr -e 210 -c 2 -a 0 -i 39 -k AGT 
- -t 1.146250000 -s 0 -d -1 -p cbr -e 210 -c 2 -a 0 -i 39 -k AGT
h -t 1.146250000 -s 0 -d -1 -p cbr -e 210 -c 2 -a 0 -i 39 -k AGT
+ -t 1.150000000 -s 0 -d -1 -p cbr -e 210 -c 2 -a 0 -i 40 -k AGT 
- -t 1.150000000 -s 0 -d -1 -p cbr -e 210 -c 2 -a 0 -i 40 -k AGT
h -t 1.150000000 -s 0 -d -1 -p cbr -e 210 -c 2 -a 0 -i 40 -k AGT
+ -t 1.153750000 -s 0 -d -1 -p cbr -e 210 -c 2 -a 0 -i 41 -k AGT 
- -t 1.153750000 -s 0 -d -1 -p cbr -e 210 -c 2 -a 0 -i 41 -k AGT
h -t 1.153750000 -s 0 -d -1 -p cbr -e 210 -c 2 -a 0 -i 41 -k AGT
+ -t 1.157500000 -s 0 -d -1 -p cbr -e 210 -c 2 -a 0 -i 42 -k AGT 
- -t 1.157500000 -s 0 -d -1 -p cbr -e 210 -c 2 -a 0 -i 42 -k AGT
h -t 1.157500000 -s 0 -d -1 -p cbr -e 210 -c 2 -a 0 -i 42 -k AGT
+ -t 1.161250000 -s 0 -d -1 -p cbr -e 210 -c 2 -a 0 -i 43 -k AGT 
- -t 1.161250000 -s 0 -d -1 -p cbr -e 210 -c 2 -a 0 -i 43 -k AGT
h -t 1.161250000 -s 0 -d -1 -p cbr -e 210 -c 2 -a 0 -i 43 -k AGT
+ -t 1.165000000 -s 0 -d -1 -p cbr -e 210 -c 2 -a 0 -i 44 -k AGT 
- -t 1.165000000 -s 0 -d -1 -p cbr -e 210 -c 2 -a 0 -i 44 -k AGT
h -t 1.165000000 -s 0 -d -1 -p cbr -e 210 -c 2 -a 0 -i 44 -k AGT
+ -t 1.168750000 -s 0 -d -1 -p cbr -e 210 -c 2 -a 0 -i 45 -k AGT 
- -t 1.168750000 -s 0 -d -1 -p cbr -e 210 -c 2 -a 0 -i 45 -k AGT
h -t 1.168750000 -s 0 -d -1 -p cbr -e 210 -c 2 -a 0 -i 45 -k AGT
+ -t 1.172500000 -s 0 -d -1 -p cbr -e 210 -c 2 -a 0 -i 46 -k AGT 
- -t 1.172500000 -s 0 -d -1 -p cbr -e 210 -c 2 -a 0 -i 46 -k AGT
h -t 1.172500000 -s 0 -d -1 -p cbr -e 210 -c 2 -a 0 -i 46 -k AGT
+ -t 1.176250000 -s 0 -d -1 -p cbr -e 210 -c 2 -a 0 -i 47 -k AGT 
- -t 1.176250000 -s 0 -d -1 -p cbr -e 210 -c 2 -a 0 -i 47 -k AGT
h -t 1.176250000 -s 0 -d -1 -p cbr -e 210 -c 2 -a 0 -i 47 -k AGT
+ -t 1.180000000 -s 0 -d -1 -p cbr -e 210 -c 2 -a 0 -i 48 -k AGT 
- -t 1.180000000 -s 0 -d -1 -p cbr -e 210 -c 2 -a 0 -i 48 -k AGT
h -t 1.180000000 -s 0 -d -1 -p cbr -e 210 -c 2 -a 0 -i 48 -k AGT
+ -t 1.183750000 -s 0 -d -1 -p cbr -e 210 -c 2 -a 0 -i 49 -k AGT 
- -t 1.183750000 -s 0 -d -1 -p cbr -e 210 -c 2 -a 0 -i 49 -k AGT
h -t 1.183750000 -s 0 -d -1 -p cbr -e 210 -c 2 -a 0 -i 49 -k AGT
+ -t 1.187500000 -s 0 -d -1 -p cbr -e 210 -c 2 -a 0 -i 50 -k AGT 
- -t 1.187500000 -s 0 -d -1 -p cbr -e 210 -c 2 -a 0 -i 50 -k AGT
h -t 1.187500000 -s 0 -d -1 -p cbr -e 210 -c 2 -a 0 -i 50 -k AGT
+ -t 1.191250000 -s 0 -d -1 -p cbr -e 210 -c 2 -a 0 -i 51 -k AGT 
- -t 1.191250000 -s 0 -d -1 -p cbr -e 210 -c 2 -a 0 -i 51 -k AGT
h -t 1.191250000 -s 0 -d -1 -p cbr -e 210 -c 2 -a 0 -i 51 -k AGT
+ -t 1.195000000 -s 0 -d -1 -p cbr -e 210 -c 2 -a 0 -i 52 -k AGT 
- -t 1.195000000 -s 0 -d -1 -p cbr -e 210 -c 2 -a 0 -i 52 -k AGT
h -t 1.195000000 -s 0 -d -1 -p cbr -e 210 -c 2 -a 0 -i 52 -k AGT
+ -t 1.198750000 -s 0 -d -1 -p cbr -e 210 -c 2 -a 0 -i 53 -k AGT 
- -t 1.198750000 -s 0 -d -1 -p cbr -e 210 -c 2 -a 0 -i 53 -k AGT
h -t 1.198750000 -s 0 -d -1 -p cbr -e 210 -c 2 -a 0 -i 53 -k AGT
+ -t 1.202500000 -s 0 -d -1 -p cbr -e 210 -c 2 -a 0 -i 54 -k AGT 
- -t 1.202500000 -s 0 -d -1 -p cbr -e 210 -c 2 -a 0 -i 54 -k AGT
h -t 1.202500000 -s 0 -d -1 -p cbr -e 210 -c 2 -a 0 -i 54 -k AGT
+ -t 1.206250000 -s 0 -d -1 -p cbr -e 210 -c 2 -a 0 -i 55 -k AGT 
- -t 1.206250000 -s 0 -d -1 -p cbr -e 210 -c 2 -a 0 -i 55 -k AGT
h -t 1.206250000 -s 0 -d -1 -p cbr -e 210 -c 2 -a 0 -i 55 -k AGT
+ -t 1.210000000 -s 0 -d -1 -p cbr -e 210 -c 2 -a 0 -i 56 -k AGT 
- -t 1.210000000 -s 0 -d -1 -p cbr -e 210 -c 2 -a 0 -i 56 -k AGT
h -t 1.210000000 -s 0 -d -1 -p cbr -e 210 -c 2 -a 0 -i 56 -k AGT
+ -t 1.213750000 -s 0 -d -1 -p cbr -e 210 -c 2 -a 0 -i 57 -k AGT 
- -t 1.213750000 -s 0 -d -1 -p cbr -e 210 -c 2 -a 0 -i 57 -k AGT
h -t 1.213750000 -s 0 -d -1 -p cbr -e 210 -c 2 -a 0 -i 57 -k AGT
+ -t 1.217500000 -s 0 -d -1 -p cbr -e 210 -c 2 -a 0 -i 58 -k AGT 
- -t 1.217500000 -s 0 -d -1 -p cbr -e 210 -c 2 -a 0 -i 58 -k AGT
h -t 1.217500000 -s 0 -d -1 -p cbr -e 210 -c 2 -a 0 -i 58 -k AGT
+ -t 1.221250000 -s 0 -d -1 -p cbr -e 210 -c 2 -a 0 -i 59 -k AGT 
- -t 1.221250000 -s 0 -d -1 -p cbr -e 210 -c 2 -a 0 -i 59 -k AGT
h -t 1.221250000 -s 0 -d -1 -p cbr -e 210 -c 2 -a 0 -i 59 -k AGT
+ -t 1.225000000 -s 0 -d -1 -p cbr -e 210 -c 2 -a 0 -i 60 -k AGT 
- -t 1.225000000 -s 0 -d -1 -p cbr -e 210 -c 2 -a 0 -i 60 -k AGT
h -t 1.225000000 -s 0 -d -1 -p cbr -e 210 -c 2 -a 0 -i 60 -k AGT
+ -t 1.228750000 -s 0 -d -1 -p cbr -e 210 -c 2 -a 0 -i 61 -k AGT 
- -t 1.228750000 -s 0 -d -1 -p cbr -e 210 -c 2 -a 0 -i 61 -k AGT
h -t 1.228750000 -s 0 -d -1 -p cbr -e 210 -c 2 -a 0 -i 61 -k AGT
+ -t 1.232500000 -s 0 -d -1 -p cbr -e 210 -c 2 -a 0 -i 62 -k AGT 
- -t 1.232500000 -s 0 -d -1 -p cbr -e 210 -c 2 -a 0 -i 62 -k AGT
h -t 1.232500000 -s 0 -d -1 -p cbr -e 210 -c 2 -a 0 -i 62 -k AGT
+ -t 1.236250000 -s 0 -d -1 -p cbr -e 210 -c 2 -a 0 -i 63 -k AGT 
- -t 1.236250000 -s 0 -d -1 -p cbr -e 210 -c 2 -a 0 -i 63 -k AGT
h -t 1.236250000 -s 0 -d -1 -p cbr -e 210 -c 2 -a 0 -i 63 -k AGT
+ -t 1.240000000 -s 0 -d -1 -p cbr -e 210 -c 2 -a 0 -i 64 -k AGT 
- -t 1.240000000 -s 0 -d -1 -p cbr -e 210 -c 2 -a 0 -i 64 -k AGT
h -t 1.240000000 -s 0 -d -1 -p cbr -e 210 -c 2 -a 0 -i 64 -k AGT
d -t 1.240000000 -s 0 -d -1 -p cbr -e 230 -c 2 -a 0 -i 0 -k RTR
+ -t 1.243750000 -s 0 -d -1 -p cbr -e 210 -c 2 -a 0 -i 65 -k AGT 
- -t 1.243750000 -s 0 -d -1 -p cbr -e 210 -c 2 -a 0 -i 65 -k AGT
h -t 1.243750000 -s 0 -d -1 -p cbr -e 210 -c 2 -a 0 -i 65 -k AGT
d -t 1.243750000 -s 0 -d -1 -p cbr -e 230 -c 2 -a 0 -i 1 -k RTR
+ -t 1.247500000 -s 0 -d -1 -p cbr -e 210 -c 2 -a 0 -i 66 -k AGT 
- -t 1.247500000 -s 0 -d -1 -p cbr -e 210 -c 2 -a 0 -i 66 -k AGT
h -t 1.247500000 -s 0 -d -1 -p cbr -e 210 -c 2 -a 0 -i 66 -k AGT
d -t 1.247500000 -s 0 -d -1 -p cbr -e 230 -c 2 -a 0 -i 2 -k RTR
+ -t 1.251250000 -s 0 -d -1 -p cbr -e 210 -c 2 -a 0 -i 67 -k AGT 
- -t 1.251250000 -s 0 -d -1 -p cbr -e 210 -c 2 -a 0 -i 67 -k AGT
h -t 1.251250000 -s 0 -d -1 -p cbr -e 210 -c 2 -a 0 -i 67 -k AGT
d -t 1.251250000 -s 0 -d -1 -p cbr -e 230 -c 2 -a 0 -i 3 -k RTR
+ -t 1.255000000 -s 0 -d -1 -p cbr -e 210 -c 2 -a 0 -i 68 -k AGT 
- -t 1.255000000 -s 0 -d -1 -p cbr -e 210 -c 2 -a 0 -i 68 -k AGT
h -t 1.255000000 -s 0 -d -1 -p cbr -e 210 -c 2 -a 0 -i 68 -k AGT
d -t 1.255000000 -s 0 -d -1 -p cbr -e 230 -c 2 -a 0 -i 4 -k RTR
+ -t 1.258750000 -s 0 -d -1 -p cbr -e 210 -c 2 -a 0 -i 69 -k AGT 
- -t 1.258750000 -s 0 -d -1 -p cbr -e 210 -c 2 -a 0 -i 69 -k AGT
h -t 1.258750000 -s 0 -d -1 -p cbr -e 210 -c 2 -a 0 -i 69 -k AGT
d -t 1.258750000 -s 0 -d -1 -p cbr -e 230 -c 2 -a 0 -i 5 -k RTR
+ -t 1.262500000 -s 0 -d -1 -p cbr -e 210 -c 2 -a 0 -i 70 -k AGT 
- -t 1.262500000 -s 0 -d -1 -p cbr -e 210 -c 2 -a 0 -i 70 -k AGT
h -t 1.262500000 -s 0 -d -1 -p cbr -e 210 -c 2 -a 0 -i 70 -k AGT
d -t 1.262500000 -s 0 -d -1 -p cbr -e 230 -c 2 -a 0 -i 6 -k RTR
+ -t 1.266250000 -s 0 -d -1 -p cbr -e 210 -c 2 -a 0 -i 71 -k AGT 
- -t 1.266250000 -s 0 -d -1 -p cbr -e 210 -c 2 -a 0 -i 71 -k AGT
h -t 1.266250000 -s 0 -d -1 -p cbr -e 210 -c 2 -a 0 -i 71 -k AGT
d -t 1.266250000 -s 0 -d -1 -p cbr -e 230 -c 2 -a 0 -i 7 -k RTR
+ -t 1.270000000 -s 0 -d -1 -p cbr -e 210 -c 2 -a 0 -i 72 -k AGT 
- -t 1.270000000 -s 0 -d -1 -p cbr -e 210 -c 2 -a 0 -i 72 -k AGT
h -t 1.270000000 -s 0 -d -1 -p cbr -e 210 -c 2 -a 0 -i 72 -k AGT
d -t 1.270000000 -s 0 -d -1 -p cbr -e 230 -c 2 -a 0 -i 8 -k RTR
+ -t 1.273750000 -s 0 -d -1 -p cbr -e 210 -c 2 -a 0 -i 73 -k AGT 
- -t 1.273750000 -s 0 -d -1 -p cbr -e 210 -c 2 -a 0 -i 73 -k AGT
h -t 1.273750000 -s 0 -d -1 -p cbr -e 210 -c 2 -a 0 -i 73 -k AGT
d -t 1.273750000 -s 0 -d -1 -p cbr -e 230 -c 2 -a 0 -i 9 -k RTR
+ -t 1.277500000 -s 0 -d -1 -p cbr -e 210 -c 2 -a 0 -i 74 -k AGT 
- -t 1.277500000 -s 0 -d -1 -p cbr -e 210 -c 2 -a 0 -i 74 -k AGT
h -t 1.277500000 -s 0 -d -1 -p cbr -e 210 -c 2 -a 0 -i 74 -k AGT
d -t 1.277500000 -s 0 -d -1 -p cbr -e 230 -c 2 -a 0 -i 10 -k RTR
+ -t 1.281250000 -s 0 -d -1 -p cbr -e 210 -c 2 -a 0 -i 75 -k AGT 
- -t 1.281250000 -s 0 -d -1 -p cbr -e 210 -c 2 -a 0 -i 75 -k AGT
h -t 1.281250000 -s 0 -d -1 -p cbr -e 210 -c 2 -a 0 -i 75 -k AGT
d -t 1.281250000 -s 0 -d -1 -p cbr -e 230 -c 2 -a 0 -i 11 -k RTR
+ -t 1.285000000 -s 0 -d -1 -p cbr -e 210 -c 2 -a 0 -i 76 -k AGT 
- -t 1.285000000 -s 0 -d -1 -p cbr -e 210 -c 2 -a 0 -i 76 -k AGT
h -t 1.285000000 -s 0 -d -1 -p cbr -e 210 -c 2 -a 0 -i 76 -k AGT
d -t 1.285000000 -s 0 -d -1 -p cbr -e 230 -c 2 -a 0 -i 12 -k RTR
+ -t 1.288750000 -s 0 -d -1 -p cbr -e 210 -c 2 -a 0 -i 77 -k AGT 
- -t 1.288750000 -s 0 -d -1 -p cbr -e 210 -c 2 -a 0 -i 77 -k AGT
h -t 1.288750000 -s 0 -d -1 -p cbr -e 210 -c 2 -a 0 -i 77 -k AGT
d -t 1.288750000 -s 0 -d -1 -p cbr -e 230 -c 2 -a 0 -i 13 -k RTR
+ -t 1.292500000 -s 0 -d -1 -p cbr -e 210 -c 2 -a 0 -i 78 -k AGT 
- -t 1.292500000 -s 0 -d -1 -p cbr -e 210 -c 2 -a 0 -i 78 -k AGT
h -t 1.292500000 -s 0 -d -1 -p cbr -e 210 -c 2 -a 0 -i 78 -k AGT
d -t 1.292500000 -s 0 -d -1 -p cbr -e 230 -c 2 -a 0 -i 14 -k RTR
+ -t 1.296250000 -s 0 -d -1 -p cbr -e 210 -c 2 -a 0 -i 79 -k AGT 
- -t 1.296250000 -s 0 -d -1 -p cbr -e 210 -c 2 -a 0 -i 79 -k AGT
h -t 1.296250000 -s 0 -d -1 -p cbr -e 210 -c 2 -a 0 -i 79 -k AGT
d -t 1.296250000 -s 0 -d -1 -p cbr -e 230 -c 2 -a 0 -i 15 -k RTR
+ -t 1.300000000 -s 0 -d -1 -p cbr -e 210 -c 2 -a 0 -i 80 -k AGT 
- -t 1.300000000 -s 0 -d -1 -p cbr -e 210 -c 2 -a 0 -i 80 -k AGT
h -t 1.300000000 -s 0 -d -1 -p cbr -e 210 -c 2 -a 0 -i 80 -k AGT
d -t 1.300000000 -s 0 -d -1 -p cbr -e 230 -c 2 -a 0 -i 16 -k RTR
+ -t 1.303750000 -s 0 -d -1 -p cbr -e 210 -c 2 -a 0 -i 81 -k AGT 
- -t 1.303750000 -s 0 -d -1 -p cbr -e 210 -c 2 -a 0 -i 81 -k AGT
h -t 1.303750000 -s 0 -d -1 -p cbr -e 210 -c 2 -a 0 -i 81 -k AGT
d -t 1.303750000 -s 0 -d -1 -p cbr -e 230 -c 2 -a 0 -i 17 -k RTR
+ -t 1.307500000 -s 0 -d -1 -p cbr -e 210 -c 2 -a 0 -i 82 -k AGT 
- -t 1.307500000 -s 0 -d -1 -p cbr -e 210 -c 2 -a 0 -i 82 -k AGT
h -t 1.307500000 -s 0 -d -1 -p cbr -e 210 -c 2 -a 0 -i 82 -k AGT
d -t 1.307500000 -s 0 -d -1 -p cbr -e 230 -c 2 -a 0 -i 18 -k RTR
+ -t 1.311250000 -s 0 -d -1 -p cbr -e 210 -c 2 -a 0 -i 83 -k AGT 
- -t 1.311250000 -s 0 -d -1 -p cbr -e 210 -c 2 -a 0 -i 83 -k AGT
h -t 1.311250000 -s 0 -d -1 -p cbr -e 210 -c 2 -a 0 -i 83 -k AGT
d -t 1.311250000 -s 0 -d -1 -p cbr -e 230 -c 2 -a 0 -i 19 -k RTR
+ -t 1.315000000 -s 0 -d -1 -p cbr -e 210 -c 2 -a 0 -i 84 -k AGT 
- -t 1.315000000 -s 0 -d -1 -p cbr -e 210 -c 2 -a 0 -i 84 -k AGT
h -t 1.315000000 -s 0 -d -1 -p cbr -e 210 -c 2 -a 0 -i 84 -k AGT
d -t 1.315000000 -s 0 -d -1 -p cbr -e 230 -c 2 -a 0 -i 20 -k RTR
+ -t 1.318750000 -s 0 -d -1 -p cbr -e 210 -c 2 -a 0 -i 85 -k AGT 
- -t 1.318750000 -s 0 -d -1 -p cbr -e 210 -c 2 -a 0 -i 85 -k AGT
h -t 1.318750000 -s 0 -d -1 -p cbr -e 210 -c 2 -a 0 -i 85 -k AGT
d -t 1.318750000 -s 0 -d -1 -p cbr -e 230 -c 2 -a 0 -i 21 -k RTR
+ -t 1.322500000 -s 0 -d -1 -p cbr -e 210 -c 2 -a 0 -i 86 -k AGT 
- -t 1.322500000 -s 0 -d -1 -p cbr -e 210 -c 2 -a 0 -i 86 -k AGT
h -t 1.322500000 -s 0 -d -1 -p cbr -e 210 -c 2 -a 0 -i 86 -k AGT
d -t 1.322500000 -s 0 -d -1 -p cbr -e 230 -c 2 -a 0 -i 22 -k RTR
+ -t 1.326250000 -s 0 -d -1 -p cbr -e 210 -c 2 -a 0 -i 87 -k AGT 
- -t 1.326250000 -s 0 -d -1 -p cbr -e 210 -c 2 -a 0 -i 87 -k AGT
h -t 1.326250000 -s 0 -d -1 -p cbr -e 210 -c 2 -a 0 -i 87 -k AGT
d -t 1.326250000 -s 0 -d -1 -p cbr -e 230 -c 2 -a 0 -i 23 -k RTR
+ -t 1.330000000 -s 0 -d -1 -p cbr -e 210 -c 2 -a 0 -i 88 -k AGT 
- -t 1.330000000 -s 0 -d -1 -p cbr -e 210 -c 2 -a 0 -i 88 -k AGT
h -t 1.330000000 -s 0 -d -1 -p cbr -e 210 -c 2 -a 0 -i 88 -k AGT
d -t 1.330000000 -s 0 -d -1 -p cbr -e 230 -c 2 -a 0 -i 24 -k RTR
+ -t 1.333750000 -s 0 -d -1 -p cbr -e 210 -c 2 -a 0 -i 89 -k AGT 
- -t 1.333750000 -s 0 -d -1 -p cbr -e 210 -c 2 -a 0 -i 89 -k AGT
h -t 1.333750000 -s 0 -d -1 -p cbr -e 210 -c 2 -a 0 -i 89 -k AGT
d -t 1.333750000 -s 0 -d -1 -p cbr -e 230 -c 2 -a 0 -i 25 -k RTR
+ -t 1.337500000 -s 0 -d -1 -p cbr -e 210 -c 2 -a 0 -i 90 -k AGT 
- -t 1.337500000 -s 0 -d -1 -p cbr -e 210 -c 2 -a 0 -i 90 -k AGT
h -t 1.337500000 -s 0 -d -1 -p cbr -e 210 -c 2 -a 0 -i 90 -k AGT
d -t 1.337500000 -s 0 -d -1 -p cbr -e 230 -c 2 -a 0 -i 26 -k RTR
+ -t 1.341250000 -s 0 -d -1 -p cbr -e 210 -c 2 -a 0 -i 91 -k AGT 
- -t 1.341250000 -s 0 -d -1 -p cbr -e 210 -c 2 -a 0 -i 91 -k AGT
h -t 1.341250000 -s 0 -d -1 -p cbr -e 210 -c 2 -a 0 -i 91 -k AGT
d -t 1.341250000 -s 0 -d -1 -p cbr -e 230 -c 2 -a 0 -i 27 -k RTR
+ -t 1.345000000 -s 0 -d -1 -p cbr -e 210 -c 2 -a 0 -i 92 -k AGT 
- -t 1.345000000 -s 0 -d -1 -p cbr -e 210 -c 2 -a 0 -i 92 -k AGT
h -t 1.345000000 -s 0 -d -1 -p cbr -e 210 -c 2 -a 0 -i 92 -k AGT
d -t 1.345000000 -s 0 -d -1 -p cbr -e 230 -c 2 -a 0 -i 28 -k RTR
+ -t 1.348750000 -s 0 -d -1 -p cbr -e 210 -c 2 -a 0 -i 93 -k AGT 
- -t 1.348750000 -s 0 -d -1 -p cbr -e 210 -c 2 -a 0 -i 93 -k AGT
h -t 1.348750000 -s 0 -d -1 -p cbr -e 210 -c 2 -a 0 -i 93 -k AGT
d -t 1.348750000 -s 0 -d -1 -p cbr -e 230 -c 2 -a 0 -i 29 -k RTR
+ -t 1.352500000 -s 0 -d -1 -p cbr -e 210 -c 2 -a 0 -i 94 -k AGT 
- -t 1.352500000 -s 0 -d -1 -p cbr -e 210 -c 2 -a 0 -i 94 -k AGT
h -t 1.352500000 -s 0 -d -1 -p cbr -e 210 -c 2 -a 0 -i 94 -k AGT
d -t 1.352500000 -s 0 -d -1 -p cbr -e 230 -c 2 -a 0 -i 30 -k RTR
+ -t 1.356250000 -s 0 -d -1 -p cbr -e 210 -c 2 -a 0 -i 95 -k AGT 
- -t 1.356250000 -s 0 -d -1 -p cbr -e 210 -c 2 -a 0 -i 95 -k AGT
h -t 1.356250000 -s 0 -d -1 -p cbr -e 210 -c 2 -a 0 -i 95 -k AGT
d -t 1.356250000 -s 0 -d -1 -p cbr -e 230 -c 2 -a 0 -i 31 -k RTR
+ -t 1.360000000 -s 0 -d -1 -p cbr -e 210 -c 2 -a 0 -i 96 -k AGT 
- -t 1.360000000 -s 0 -d -1 -p cbr -e 210 -c 2 -a 0 -i 96 -k AGT
h -t 1.360000000 -s 0 -d -1 -p cbr -e 210 -c 2 -a 0 -i 96 -k AGT
d -t 1.360000000 -s 0 -d -1 -p cbr -e 230 -c 2 -a 0 -i 32 -k RTR
+ -t 1.363750000 -s 0 -d -1 -p cbr -e 210 -c 2 -a 0 -i 97 -k AGT 
- -t 1.363750000 -s 0 -d -1 -p cbr -e 210 -c 2 -a 0 -i 97 -k AGT
h -t 1.363750000 -s 0 -d -1 -p cbr -e 210 -c 2 -a 0 -i 97 -k AGT
d -t 1.363750000 -s 0 -d -1 -p cbr -e 230 -c 2 -a 0 -i 33 -k RTR
+ -t 1.367500000 -s 0 -d -1 -p cbr -e 210 -c 2 -a 0 -i 98 -k AGT 
- -t 1.367500000 -s 0 -d -1 -p cbr -e 210 -c 2 -a 0 -i 98 -k AGT
h -t 1.367500000 -s 0 -d -1 -p cbr -e 210 -c 2 -a 0 -i 98 -k AGT
d -t 1.367500000 -s 0 -d -1 -p cbr -e 230 -c 2 -a 0 -i 34 -k RTR
+ -t 1.371250000 -s 0 -d -1 -p cbr -e 210 -c 2 -a 0 -i 99 -k AGT 
- -t 1.371250000 -s 0 -d -1 -p cbr -e 210 -c 2 -a 0 -i 99 -k AGT
h -t 1.371250000 -s 0 -d -1 -p cbr -e 210 -c 2 -a 0 -i 99 -k AGT
d -t 1.371250000 -s 0 -d -1 -p cbr -e 230 -c 2 -a 0 -i 35 -k RTR
+ -t 1.375000000 -s 0 -d -1 -p cbr -e 210 -c 2 -a 0 -i 100 -k AGT 
- -t 1.375000000 -s 0 -d -1 -p cbr -e 210 -c 2 -a 0 -i 100 -k AGT
h -t 1.375000000 -s 0 -d -1 -p cbr -e 210 -c 2 -a 0 -i 100 -k AGT
d -t 1.375000000 -s 0 -d -1 -p cbr -e 230 -c 2 -a 0 -i 36 -k RTR
+ -t 1.378750000 -s 0 -d -1 -p cbr -e 210 -c 2 -a 0 -i 101 -k AGT 
- -t 1.378750000 -s 0 -d -1 -p cbr -e 210 -c 2 -a 0 -i 101 -k AGT
h -t 1.378750000 -s 0 -d -1 -p cbr -e 210 -c 2 -a 0 -i 101 -k AGT
d -t 1.378750000 -s 0 -d -1 -p cbr -e 230 -c 2 -a 0 -i 37 -k RTR
+ -t 1.382500000 -s 0 -d -1 -p cbr -e 210 -c 2 -a 0 -i 102 -k AGT 
- -t 1.382500000 -s 0 -d -1 -p cbr -e 210 -c 2 -a 0 -i 102 -k AGT
h -t 1.382500000 -s 0 -d -1 -p cbr -e 210 -c 2 -a 0 -i 102 -k AGT
d -t 1.382500000 -s 0 -d -1 -p cbr -e 230 -c 2 -a 0 -i 38 -k RTR
+ -t 1.386250000 -s 0 -d -1 -p cbr -e 210 -c 2 -a 0 -i 103 -k AGT 
- -t 1.386250000 -s 0 -d -1 -p cbr -e 210 -c 2 -a 0 -i 103 -k AGT
h -t 1.386250000 -s 0 -d -1 -p cbr -e 210 -c 2 -a 0 -i 103 -k AGT
d -t 1.386250000 -s 0 -d -1 -p cbr -e 230 -c 2 -a 0 -i 39 -k RTR
+ -t 1.390000000 -s 0 -d -1 -p cbr -e 210 -c 2 -a 0 -i 104 -k AGT 
- -t 1.390000000 -s 0 -d -1 -p cbr -e 210 -c 2 -a 0 -i 104 -k AGT
h -t 1.390000000 -s 0 -d -1 -p cbr -e 210 -c 2 -a 0 -i 104 -k AGT
d -t 1.390000000 -s 0 -d -1 -p cbr -e 230 -c 2 -a 0 -i 40 -k RTR
+ -t 1.393750000 -s 0 -d -1 -p cbr -e 210 -c 2 -a 0 -i 105 -k AGT 
- -t 1.393750000 -s 0 -d -1 -p cbr -e 210 -c 2 -a 0 -i 105 -k AGT
h -t 1.393750000 -s 0 -d -1 -p cbr -e 210 -c 2 -a 0 -i 105 -k AGT
d -t 1.393750000 -s 0 -d -1 -p cbr -e 230 -c 2 -a 0 -i 41 -k RTR
+ -t 1.397500000 -s 0 -d -1 -p cbr -e 210 -c 2 -a 0 -i 106 -k AGT 
- -t 1.397500000 -s 0 -d -1 -p cbr -e 210 -c 2 -a 0 -i 106 -k AGT
h -t 1.397500000 -s 0 -d -1 -p cbr -e 210 -c 2 -a 0 -i 106 -k AGT
d -t 1.397500000 -s 0 -d -1 -p cbr -e 230 -c 2 -a 0 -i 42 -k RTR
+ -t 1.401250000 -s 0 -d -1 -p cbr -e 210 -c 2 -a 0 -i 107 -k AGT 
- -t 1.401250000 -s 0 -d -1 -p cbr -e 210 -c 2 -a 0 -i 107 -k AGT
h -t 1.401250000 -s 0 -d -1 -p cbr -e 210 -c 2 -a 0 -i 107 -k AGT
d -t 1.401250000 -s 0 -d -1 -p cbr -e 230 -c 2 -a 0 -i 43 -k RTR
+ -t 1.405000000 -s 0 -d -1 -p cbr -e 210 -c 2 -a 0 -i 108 -k AGT 
- -t 1.405000000 -s 0 -d -1 -p cbr -e 210 -c 2 -a 0 -i 108 -k AGT
h -t 1.405000000 -s 0 -d -1 -p cbr -e 210 -c 2 -a 0 -i 108 -k AGT
d -t 1.405000000 -s 0 -d -1 -p cbr -e 230 -c 2 -a 0 -i 44 -k RTR
+ -t 1.408750000 -s 0 -d -1 -p cbr -e 210 -c 2 -a 0 -i 109 -k AGT 
- -t 1.408750000 -s 0 -d -1 -p cbr -e 210 -c 2 -a 0 -i 109 -k AGT
h -t 1.408750000 -s 0 -d -1 -p cbr -e 210 -c 2 -a 0 -i 109 -k AGT
d -t 1.408750000 -s 0 -d -1 -p cbr -e 230 -c 2 -a 0 -i 45 -k RTR
+ -t 1.412500000 -s 0 -d -1 -p cbr -e 210 -c 2 -a 0 -i 110 -k AGT 
- -t 1.412500000 -s 0 -d -1 -p cbr -e 210 -c 2 -a 0 -i 110 -k AGT
h -t 1.412500000 -s 0 -d -1 -p cbr -e 210 -c 2 -a 0 -i 110 -k AGT
d -t 1.412500000 -s 0 -d -1 -p cbr -e 230 -c 2 -a 0 -i 46 -k RTR
+ -t 1.416250000 -s 0 -d -1 -p cbr -e 210 -c 2 -a 0 -i 111 -k AGT 
- -t 1.416250000 -s 0 -d -1 -p cbr -e 210 -c 2 -a 0 -i 111 -k AGT
h -t 1.416250000 -s 0 -d -1 -p cbr -e 210 -c 2 -a 0 -i 111 -k AGT
d -t 1.416250000 -s 0 -d -1 -p cbr -e 230 -c 2 -a 0 -i 47 -k RTR
+ -t 1.420000000 -s 0 -d -1 -p cbr -e 210 -c 2 -a 0 -i 112 -k AGT 
- -t 1.420000000 -s 0 -d -1 -p cbr -e 210 -c 2 -a 0 -i 112 -k AGT
h -t 1.420000000 -s 0 -d -1 -p cbr -e 210 -c 2 -a 0 -i 112 -k AGT
d -t 1.420000000 -s 0 -d -1 -p cbr -e 230 -c 2 -a 0 -i 48 -k RTR
+ -t 1.423750000 -s 0 -d -1 -p cbr -e 210 -c 2 -a 0 -i 113 -k AGT 
- -t 1.423750000 -s 0 -d -1 -p cbr -e 210 -c 2 -a 0 -i 113 -k AGT
h -t 1.423750000 -s 0 -d -1 -p cbr -e 210 -c 2 -a 0 -i 113 -k AGT
d -t 1.423750000 -s 0 -d -1 -p cbr -e 230 -c 2 -a 0 -i 49 -k RTR
+ -t 1.427500000 -s 0 -d -1 -p cbr -e 210 -c 2 -a 0 -i 114 -k AGT 
- -t 1.427500000 -s 0 -d -1 -p cbr -e 210 -c 2 -a 0 -i 114 -k AGT
h -t 1.427500000 -s 0 -d -1 -p cbr -e 210 -c 2 -a 0 -i 114 -k AGT
d -t 1.427500000 -s 0 -d -1 -p cbr -e 230 -c 2 -a 0 -i 50 -k RTR
+ -t 1.431250000 -s 0 -d -1 -p cbr -e 210 -c 2 -a 0 -i 115 -k AGT 
- -t 1.431250000 -s 0 -d -1 -p cbr -e 210 -c 2 -a 0 -i 115 -k AGT
h -t 1.431250000 -s 0 -d -1 -p cbr -e 210 -c 2 -a 0 -i 115 -k AGT
d -t 1.431250000 -s 0 -d -1 -p cbr -e 230 -c 2 -a 0 -i 51 -k RTR
+ -t 1.435000000 -s 0 -d -1 -p cbr -e 210 -c 2 -a 0 -i 116 -k AGT 
- -t 1.435000000 -s 0 -d -1 -p cbr -e 210 -c 2 -a 0 -i 116 -k AGT
h -t 1.435000000 -s 0 -d -1 -p cbr -e 210 -c 2 -a 0 -i 116 -k AGT
d -t 1.435000000 -s 0 -d -1 -p cbr -e 230 -c 2 -a 0 -i 52 -k RTR
+ -t 1.438750000 -s 0 -d -1 -p cbr -e 210 -c 2 -a 0 -i 117 -k AGT 
- -t 1.438750000 -s 0 -d -1 -p cbr -e 210 -c 2 -a 0 -i 117 -k AGT
h -t 1.438750000 -s 0 -d -1 -p cbr -e 210 -c 2 -a 0 -i 117 -k AGT
d -t 1.438750000 -s 0 -d -1 -p cbr -e 230 -c 2 -a 0 -i 53 -k RTR
+ -t 1.442500000 -s 0 -d -1 -p cbr -e 210 -c 2 -a 0 -i 118 -k AGT 
- -t 1.442500000 -s 0 -d -1 -p cbr -e 210 -c 2 -a 0 -i 118 -k AGT
h -t 1.442500000 -s 0 -d -1 -p cbr -e 210 -c 2 -a 0 -i 118 -k AGT
d -t 1.442500000 -s 0 -d -1 -p cbr -e 230 -c 2 -a 0 -i 54 -k RTR
+ -t 1.446250000 -s 0 -d -1 -p cbr -e 210 -c 2 -a 0 -i 119 -k AGT 
- -t 1.446250000 -s 0 -d -1 -p cbr -e 210 -c 2 -a 0 -i 119 -k AGT
h -t 1.446250000 -s 0 -d -1 -p cbr -e 210 -c 2 -a 0 -i 119 -k AGT
d -t 1.446250000 -s 0 -d -1 -p cbr -e 230 -c 2 -a 0 -i 55 -k RTR
+ -t 1.450000000 -s 0 -d -1 -p cbr -e 210 -c 2 -a 0 -i 120 -k AGT 
- -t 1.450000000 -s 0 -d -1 -p cbr -e 210 -c 2 -a 0 -i 120 -k AGT
h -t 1.450000000 -s 0 -d -1 -p cbr -e 210 -c 2 -a 0 -i 120 -k AGT
d -t 1.450000000 -s 0 -d -1 -p cbr -e 230 -c 2 -a 0 -i 56 -k RTR
+ -t 1.453750000 -s 0 -d -1 -p cbr -e 210 -c 2 -a 0 -i 121 -k AGT 
- -t 1.453750000 -s 0 -d -1 -p cbr -e 210 -c 2 -a 0 -i 121 -k AGT
h -t 1.453750000 -s 0 -d -1 -p cbr -e 210 -c 2 -a 0 -i 121 -k AGT
d -t 1.453750000 -s 0 -d -1 -p cbr -e 230 -c 2 -a 0 -i 57 -k RTR
+ -t 1.457500000 -s 0 -d -1 -p cbr -e 210 -c 2 -a 0 -i 122 -k AGT 
- -t 1.457500000 -s 0 -d -1 -p cbr -e 210 -c 2 -a 0 -i 122 -k AGT
h -t 1.457500000 -s 0 -d -1 -p cbr -e 210 -c 2 -a 0 -i 122 -k AGT
d -t 1.457500000 -s 0 -d -1 -p cbr -e 230 -c 2 -a 0 -i 58 -k RTR