s 1.000000000 _0_ AGT  --- 0 cbr 210 [0 0 0 0] ------- [0:0 3:0 32 0] [0] 0 0
r 1.000000000 _0_ RTR  --- 0 cbr 210 [0 0 0 0] ------- [0:0 3:0 32 0] [0] 0 0
s 1.000000000 _0_ RTR  --- 0 AODV 48 [0 0 0 0] ------- [0:255 -1:255 30 0] [0x2 1 1 [3 0] [0 4]] (REQUEST)
r 1.001408333 _3_ RTR  --- 0 AODV 48 [0 ffffffff 0 800] ------- [0:255 -1:255 30 0] [0x2 1 1 [3 0] [0 4]] (REQUEST)
s 1.001408333 _3_ RTR  --- 0 AODV 44 [0 0 0 0] ------- [3:255 0:255 30 0] [0x4 1 [3 4] 10.000000] (REPLY)
r 1.001408667 _1_ RTR  --- 0 AODV 48 [0 ffffffff 0 800] ------- [0:255 -1:255 30 0] [0x2 1 1 [3 0] [0 4]] (REQUEST)
r 1.001408745 _2_ RTR  --- 0 AODV 48 [0 ffffffff 0 800] ------- [0:255 -1:255 30 0] [0x2 1 1 [3 0] [0 4]] (REQUEST)
s 1.001550713 _1_ RTR  --- 0 AODV 48 [0 ffffffff 0 800] ------- [1:255 -1:255 29 0] [0x2 2 1 [3 0] [0 4]] (REQUEST)
s 1.002289972 _2_ RTR  --- 0 AODV 48 [0 ffffffff 0 800] ------- [2:255 -1:255 29 0] [0x2 2 1 [3 0] [0 4]] (REQUEST)
r 1.002499047 _2_ RTR  --- 0 AODV 48 [0 ffffffff 1 800] ------- [1:255 -1:255 29 0] [0x2 2 1 [3 0] [0 4]] (REQUEST)
r 1.002499380 _0_ RTR  --- 0 AODV 48 [0 ffffffff 1 800] ------- [1:255 -1:255 29 0] [0x2 2 1 [3 0] [0 4]] (REQUEST)
r 1.002499459 _3_ RTR  --- 0 AODV 48 [0 ffffffff 1 800] ------- [1:255 -1:255 29 0] [0x2 2 1 [3 0] [0 4]] (REQUEST)
r 1.003557380 _1_ RTR  --- 0 AODV 48 [0 ffffffff 2 800] ------- [2:255 -1:255 29 0] [0x2 2 1 [3 0] [0 4]] (REQUEST)
s 1.003750000 _0_ AGT  --- 1 cbr 210 [0 0 0 0] ------- [0:0 3:0 32 0] [1] 0 0
r 1.003750000 _0_ RTR  --- 1 cbr 210 [0 0 0 0] ------- [0:0 3:0 32 0] [1] 0 0
s 1.007500000 _0_ AGT  --- 2 cbr 210 [0 0 0 0] ------- [0:0 3:0 32 0] [2] 0 0
r 1.007500000 _0_ RTR  --- 2 cbr 210 [0 0 0 0] ------- [0:0 3:0 32 0] [2] 0 0
s 1.011250000 _0_ AGT  --- 3 cbr 210 [0 0 0 0] ------- [0:0 3:0 32 0] [3] 0 0
r 1.011250000 _0_ RTR  --- 3 cbr 210 [0 0 0 0] ------- [0:0 3:0 32 0] [3] 0 0
s 1.015000000 _0_ AGT  --- 4 cbr 210 [0 0 0 0] ------- [0:0 3:0 32 0] [4] 0 0
r 1.015000000 _0_ RTR  --- 4 cbr 210 [0 0 0 0] ------- [0:0 3:0 32 0] [4] 0 0
s 1.018750000 _0_ AGT  --- 5 cbr 210 [0 0 0 0] ------- [0:0 3:0 32 0] [5] 0 0
r 1.018750000 _0_ RTR  --- 5 cbr 210 [0 0 0 0] ------- [0:0 3:0 32 0] [5] 0 0
s 1.022500000 _0_ AGT  --- 6 cbr 210 [0 0 0 0] ------- [0:0 3:0 32 0] [6] 0 0
r 1.022500000 _0_ RTR  --- 6 cbr 210 [0 0 0 0] ------- [0:0 3:0 32 0] [6] 0 0
s 1.026250000 _0_ AGT  --- 7 cbr 210 [0 0 0 0] ------- [0:0 3:0 32 0] [7] 0 0
r 1.026250000 _0_ RTR  --- 7 cbr 210 [0 0 0 0] ------- [0:0 3:0 32 0] [7] 0 0
s 1.030000000 _0_ AGT  --- 8 cbr 210 [0 0 0 0] ------- [0:0 3:0 32 0] [8] 0 0
r 1.030000000 _0_ RTR  --- 8 cbr 210 [0 0 0 0] ------- [0:0 3:0 32 0] [8] 0 0
s 1.033750000 _0_ AGT  --- 9 cbr 210 [0 0 0 0] ------- [0:0 3:0 32 0] [9] 0 0
r 1.033750000 _0_ RTR  --- 9 cbr 210 [0 0 0 0] ------- [0:0 3:0 32 0] [9] 0 0
s 1.037500000 _0_ AGT  --- 10 cbr 210 [0 0 0 0] ------- [0:0 3:0 32 0] [10] 0 0
r 1.037500000 _0_ RTR  --- 10 cbr 210 [0 0 0 0] ------- [0:0 3:0 32 0] [10] 0 0
s 1.041250000 _0_ AGT  --- 11 cbr 210 [0 0 0 0] ------- [0:0 3:0 32 0] [11] 0 0
r 1.041250000 _0_ RTR  --- 11 cbr 210 [0 0 0 0] ------- [0:0 3:0 32 0] [11] 0 0
s 1.045000000 _0_ AGT  --- 12 cbr 210 [0 0 0 0] ------- [0:0 3:0 32 0] [12] 0 0
r 1.045000000 _0_ RTR  --- 12 cbr 210 [0 0 0 0] ------- [0:0 3:0 32 0] [12] 0 0
s 1.048750000 _0_ AGT  --- 13 cbr 210 [0 0 0 0] ------- [0:0 3:0 32 0] [13] 0 0
r 1.048750000 _0_ RTR  --- 13 cbr 210 [0 0 0 0] ------- [0:0 3:0 32 0] [13] 0 0
s 1.052500000 _0_ AGT  --- 14 cbr 210 [0 0 0 0] ------- [0:0 3:0 32 0] [14] 0 0
r 1.052500000 _0_ RTR  --- 14 cbr 210 [0 0 0 0] ------- [0:0 3:0 32 0] [14] 0 0
s 1.056250000 _0_ AGT  --- 15 cbr 210 [0 0 0 0] ------- [0:0 3:0 32 0] [15] 0 0
r 1.056250000 _0_ RTR  --- 15 cbr 210 [0 0 0 0] ------- [0:0 3:0 32 0] [15] 0 0
s 1.060000000 _0_ AGT  --- 16 cbr 210 [0 0 0 0] ------- [0:0 3:0 32 0] [16] 0 0
r 1.060000000 _0_ RTR  --- 16 cbr 210 [0 0 0 0] ------- [0:0 3:0 32 0] [16] 0 0
s 1.063750000 _0_ AGT  --- 17 cbr 210 [0 0 0 0] ------- [0:0 3:0 32 0] [17] 0 0
r 1.063750000 _0_ RTR  --- 17 cbr 210 [0 0 0 0] ------- [0:0 3:0 32 0] [17] 0 0
s 1.067500000 _0_ AGT  --- 18 cbr 210 [0 0 0 0] ------- [0:0 3:0 32 0] [18] 0 0
r 1.067500000 _0_ RTR  --- 18 cbr 210 [0 0 0 0] ------- [0:0 3:0 32 0] [18] 0 0
s 1.071250000 _0_ AGT  --- 19 cbr 210 [0 0 0 0] ------- [0:0 3:0 32 0] [19] 0 0
r 1.071250000 _0_ RTR  --- 19 cbr 210 [0 0 0 0] ------- [0:0 3:0 32 0] [19] 0 0
s 1.075000000 _0_ AGT  --- 20 cbr 210 [0 0 0 0] ------- [0:0 3:0 32 0] [20] 0 0
r 1.075000000 _0_ RTR  --- 20 cbr 210 [0 0 0 0] ------- [0:0 3:0 32 0] [20] 0 0
s 1.078750000 _0_ AGT  --- 21 cbr 210 [0 0 0 0] ------- [0:0 3:0 32 0] [21] 0 0
r 1.078750000 _0_ RTR  --- 21 cbr 210 [0 0 0 0] ------- [0:0 3:0 32 0] [21] 0 0
s 1.082500000 _0_ AGT  --- 22 cbr 210 [0 0 0 0] ------- [0:0 3:0 32 0] [22] 0 0
r 1.082500000 _0_ RTR  --- 22 cbr 210 [0 0 0 0] ------- [0:0 3:0 32 0] [22] 0 0
s 1.086250000 _0_ AGT  --- 23 cbr 210 [0 0 0 0] ------- [0:0 3:0 32 0] [23] 0 0
r 1.086250000 _0_ RTR  --- 23 cbr 210 [0 0 0 0] ------- [0:0 3:0 32 0] [23] 0 0
s 1.090000000 _0_ AGT  --- 24 cbr 210 [0 0 0 0] ------- [0:0 3:0 32 0] [24] 0 0
r 1.090000000 _0_ RTR  --- 24 cbr 210 [0 0 0 0] ------- [0:0 3:0 32 0] [24] 0 0
s 1.093750000 _0_ AGT  --- 25 cbr 210 [0 0 0 0] ------- [0:0 3:0 32 0] [25] 0 0
r 1.093750000 _0_ RTR  --- 25 cbr 210 [0 0 0 0] ------- [0:0 3:0 32 0] [25] 0 0
s 1.097500000 _0_ AGT  --- 26 cbr 210 [0 0 0 0] ------- [0:0 3:0 32 0] [26] 0 0
r 1.097500000 _0_ RTR  --- 26 cbr 210 [0 0 0 0] ------- [0:0 3:0 32 0] [26] 0 0
s 1.101250000 _0_ AGT  --- 27 cbr 210 [0 0 0 0] ------- [0:0 3:0 32 0] [27] 0 0
r 1.101250000 _0_ RTR  --- 27 cbr 210 [0 0 0 0] ------- [0:0 3:0 32 0] [27] 0 0
s 1.105000000 _0_ AGT  --- 28 cbr 210 [0 0 0 0] ------- [0:0 3:0 32 0] [28] 0 0
r 1.105000000 _0_ RTR  --- 28 cbr 210 [0 0 0 0] ------- [0:0 3:0 32 0] [28] 0 0
s 1.108750000 _0_ AGT  --- 29 cbr 210 [0 0 0 0] ------- [0:0 3:0 32 0] [29] 0 0
r 1.108750000 _0_ RTR  --- 29 cbr 210 [0 0 0 0] ------- [0:0 3:0 32 0] [29] 0 0
s 1.112500000 _0_ AGT  --- 30 cbr 210 [0 0 0 0] ------- [0:0 3:0 32 0] [30] 0 0
r 1.112500000 _0_ RTR  --- 30 cbr 210 [0 0 0 0] ------- [0:0 3:0 32 0] [30] 0 0
s 1.116250000 _0_ AGT  --- 31 cbr 210 [0 0 0 0] ------- [0:0 3:0 32 0] [31] 0 0
r 1.116250000 _0_ RTR  --- 31 cbr 210 [0 0 0 0] ------- [0:0 3:0 32 0] [31] 0 0
s 1.120000000 _0_ AGT  --- 32 cbr 210 [0 0 0 0] ------- [0:0 3:0 32 0] [32] 0 0
r 1.120000000 _0_ RTR  --- 32 cbr 210 [0 0 0 0] ------- [0:0 3:0 32 0] [32] 0 0
s 1.123750000 _0_ AGT  --- 33 cbr 210 [0 0 0 0] ------- [0:0 3:0 32 0] [33] 0 0
r 1.123750000 _0_ RTR  --- 33 cbr 210 [0 0 0 0] ------- [0:0 3:0 32 0] [33] 0 0
s 1.127500000 _0_ AGT  --- 34 cbr 210 [0 0 0 0] ------- [0:0 3:0 32 0] [34] 0 0
r 1.127500000 _0_ RTR  --- 34 cbr 210 [0 0 0 0] ------- [0:0 3:0 32 0] [34] 0 0
s 1.131250000 _0_ AGT  --- 35 cbr 210 [0 0 0 0] ------- [0:0 3:0 32 0] [35] 0 0
r 1.131250000 _0_ RTR  --- 35 cbr 210 [0 0 0 0] ------- [0:0 3:0 32 0] [35] 0 0
s 1.135000000 _0_ AGT  --- 36 cbr 210 [0 0 0 0] ------- [0:0 3:0 32 0] [36] 0 0
r 1.135000000 _0_ RTR  --- 36 cbr 210 [0 0 0 0] ------- [0:0 3:0 32 0] [36] 0 0
s 1.138750000 _0_ AGT  --- 37 cbr 210 [0 0 0 0] ------- [0:0 3:0 32 0] [37] 0 0
r 1.138750000 _0_ RTR  --- 37 cbr 210 [0 0 0 0] ------- [0:0 3:0 32 0] [37] 0 0
s 1.142500000 _0_ AGT  --- 38 cbr 210 [0 0 0 0] ------- [0:0 3:0 32 0] [38] 0 0
r 1.142500000 _0_ RTR  --- 38 cbr 210 [0 0 0 0] ------- [0:0 3:0 32 0] [38] 0 0
s 1.146250000 _0_ AGT  --- 39 cbr 210 [0 0 0 0] ------- [0:0 3:0 32 0] [39] 0 0
r 1.146250000 _0_ RTR  --- 39 cbr 210 [0 0 0 0] ------- [0:0 3:0 32 0] [39] 0 0
s 1.150000000 _0_ AGT  --- 40 cbr 210 [0 0 0 0] ------- [0:0 3:0 32 0] [40] 0 0
r 1.150000000 _0_ RTR  --- 40 cbr 210 [0 0 0 0] ------- [0:0 3:0 32 0] [40] 0 0
s 1.153750000 _0_ AGT  --- 41 cbr 210 [0 0 0 0] ------- [0:0 3:0 32 0] [41] 0 0
r 1.153750000 _0_ RTR  --- 41 cbr 210 [0 0 0 0] ------- [0:0 3:0 32 0] [41] 0 0
s 1.157500000 _0_ AGT  --- 42 cbr 210 [0 0 0 0] ------- [0:0 3:0 32 0] [42] 0 0
r 1.157500000 _0_ RTR  --- 42 cbr 210 [0 0 0 0] ------- [0:0 3:0 32 0] [42] 0 0
s 1.161250000 _0_ AGT  --- 43 cbr 210 [0 0 0 0] ------- [0:0 3:0 32 0] [43] 0 0
r 1.161250000 _0_ RTR  --- 43 cbr 210 [0 0 0 0] ------- [0:0 3:0 32 0] [43] 0 0
s 1.165000000 _0_ AGT  --- 44 cbr 210 [0 0 0 0] ------- [0:0 3:0 32 0] [44] 0 0
r 1.165000000 _0_ RTR  --- 44 cbr 210 [0 0 0 0] ------- [0:0 3:0 32 0] [44] 0 0
s 1.168750000 _0_ AGT  --- 45 cbr 210 [0 0 0 0] ------- [0:0 3:0 32 0] [45] 0 0
r 1.168750000 _0_ RTR  --- 45 cbr 210 [0 0 0 0] ------- [0:0 3:0 32 0] [45] 0 0
s 1.172500000 _0_ AGT  --- 46 cbr 210 [0 0 0 0] ------- [0:0 3:0 32 0] [46] 0 0
r 1.172500000 _0_ RTR  --- 46 cbr 210 [0 0 0 0] ------- [0:0 3:0 32 0] [46] 0 0
s 1.176250000 _0_ AGT  --- 47 cbr 210 [0 0 0 0] ------- [0:0 3:0 32 0] [47] 0 0
r 1.176250000 _0_ RTR  --- 47 cbr 210 [0 0 0 0] ------- [0:0 3:0 32 0] [47] 0 0
s 1.180000000 _0_ AGT  --- 48 cbr 210 [0 0 0 0] ------- [0:0 3:0 32 0] [48] 0 0
r 1.180000000 _0_ RTR  --- 48 cbr 210 [0 0 0 0] ------- [0:0 3:0 32 0] [48] 0 0
s 1.183750000 _0_ AGT  --- 49 cbr 210 [0 0 0 0] ------- [0:0 3:0 32 0] [49] 0 0
r 1.183750000 _0_ RTR  --- 49 cbr 210 [0 0 0 0] ------- [0:0 3:0 32 0] [49] 0 0
s 1.187500000 _0_ AGT  --- 50 cbr 210 [0 0 0 0] ------- [0:0 3:0 32 0] [50] 0 0
r 1.187500000 _0_ RTR  --- 50 cbr 210 [0 0 0 0] ------- [0:0 3:0 32 0] [50] 0 0
s 1.191250000 _0_ AGT  --- 51 cbr 210 [0 0 0 0] ------- [0:0 3:0 32 0] [51] 0 0
r 1.191250000 _0_ RTR  --- 51 cbr 210 [0 0 0 0] ------- [0:0 3:0 32 0] [51] 0 0
s 1.195000000 _0_ AGT  --- 52 cbr 210 [0 0 0 0] ------- [0:0 3:0 32 0] [52] 0 0
r 1.195000000 _0_ RTR  --- 52 cbr 210 [0 0 0 0] ------- [0:0 3:0 32 0] [52] 0 0
s 1.198750000 _0_ AGT  --- 53 cbr 210 [0 0 0 0] ------- [0:0 3:0 32 0] [53] 0 0
r 1.198750000 _0_ RTR  --- 53 cbr 210 [0 0 0 0] ------- [0:0 3:0 32 0] [53] 0 0
s 1.202500000 _0_ AGT  --- 54 cbr 210 [0 0 0 0] ------- [0:0 3:0 32 0] [54] 0 0
r 1.202500000 _0_ RTR  --- 54 cbr 210 [0 0 0 0] ------- [0:0 3:0 32 0] [54] 0 0
s 1.206250000 _0_ AGT  --- 55 cbr 210 [0 0 0 0] ------- [0:0 3:0 32 0] [55] 0 0
r 1.206250000 _0_ RTR  --- 55 cbr 210 [0 0 0 0] ------- [0:0 3:0 32 0] [55] 0 0
s 1.210000000 _0_ AGT  --- 56 cbr 210 [0 0 0 0] ------- [0:0 3:0 32 0] [56] 0 0
r 1.210000000 _0_ RTR  --- 56 cbr 210 [0 0 0 0] ------- [0:0 3:0 32 0] [56] 0 0
s 1.213750000 _0_ AGT  --- 57 cbr 210 [0 0 0 0] ------- [0:0 3:0 32 0] [57] 0 0
r 1.213750000 _0_ RTR  --- 57 cbr 210 [0 0 0 0] ------- [0:0 3:0 32 0] [57] 0 0
s 1.217500000 _0_ AGT  --- 58 cbr 210 [0 0 0 0] ------- [0:0 3:0 32 0] [58] 0 0
r 1.217500000 _0_ RTR  --- 58 cbr 210 [0 0 0 0] ------- [0:0 3:0 32 0] [58] 0 0
s 1.221250000 _0_ AGT  --- 59 cbr 210 [0 0 0 0] ------- [0:0 3:0 32 0] [59] 0 0
r 1.221250000 _0_ RTR  --- 59 cbr 210 [0 0 0 0] ------- [0:0 3:0 32 0] [59] 0 0
s 1.225000000 _0_ AGT  --- 60 cbr 210 [0 0 0 0] ------- [0:0 3:0 32 0] [60] 0 0
r 1.225000000 _0_ RTR  --- 60 cbr 210 [0 0 0 0] ------- [0:0 3:0 32 0] [60] 0 0
s 1.228750000 _0_ AGT  --- 61 cbr 210 [0 0 0 0] ------- [0:0 3:0 32 0] [61] 0 0
r 1.228750000 _0_ RTR  --- 61 cbr 210 [0 0 0 0] ------- [0:0 3:0 32 0] [61] 0 0
s 1.232500000 _0_ AGT  --- 62 cbr 210 [0 0 0 0] ------- [0:0 3:0 32 0] [62] 0 0
r 1.232500000 _0_ RTR  --- 62 cbr 210 [0 0 0 0] ------- [0:0 3:0 32 0] [62] 0 0
s 1.236250000 _0_ AGT  --- 63 cbr 210 [0 0 0 0] ------- [0:0 3:0 32 0] [63] 0 0
r 1.236250000 _0_ RTR  --- 63 cbr 210 [0 0 0 0] ------- [0:0 3:0 32 0] [63] 0 0
s 1.240000000 _0_ AGT  --- 64 cbr 210 [0 0 0 0] ------- [0:0 3:0 32 0] [64] 0 0
r 1.240000000 _0_ RTR  --- 64 cbr 210 [0 0 0 0] ------- [0:0 3:0 32 0] [64] 0 0
D 1.240000000 _0_ RTR  IFQ 0 cbr 230 [0 0 0 0] ------- [0:0 3:0 30 0] [0] 0 0
s 1.243750000 _0_ AGT  --- 65 cbr 210 [0 0 0 0] ------- [0:0 3:0 32 0] [65] 0 0
r 1.243750000 _0_ RTR  --- 65 cbr 210 [0 0 0 0] ------- [0:0 3:0 32 0] [65] 0 0
D 1.243750000 _0_ RTR  IFQ 1 cbr 230 [0 0 0 0] ------- [0:0 3:0 30 0] [1] 0 0
s 1.247500000 _0_ AGT  --- 66 cbr 210 [0 0 0 0] ------- [0:0 3:0 32 0] [66] 0 0
r 1.247500000 _0_ RTR  --- 66 cbr 210 [0 0 0 0] ------- [0:0 3:0 32 0] [66] 0 0
D 1.247500000 _0_ RTR  IFQ 2 cbr 230 [0 0 0 0] ------- [0:0 3:0 30 0] [2] 0 0
s 1.251250000 _0_ AGT  --- 67 cbr 210 [0 0 0 0] ------- [0:0 3:0 32 0] [67] 0 0
r 1.251250000 _0_ RTR  --- 67 cbr 210 [0 0 0 0] ------- [0:0 3:0 32 0] [67] 0 0
D 1.251250000 _0_ RTR  IFQ 3 cbr 230 [0 0 0 0] ------- [0:0 3:0 30 0] [3] 0 0
s 1.255000000 _0_ AGT  --- 68 cbr 210 [0 0 0 0] ------- [0:0 3:0 32 0] [68] 0 0
r 1.255000000 _0_ RTR  --- 68 cbr 210 [0 0 0 0] ------- [0:0 3:0 32 0] [68] 0 0
D 1.255000000 _0_ RTR  IFQ 4 cbr 230 [0 0 0 0] ------- [0:0 3:0 30 0] [4] 0 0
s 1.258750000 _0_ AGT  --- 69 cbr 210 [0 0 0 0] ------- [0:0 3:0 32 0] [69] 0 0
r 1.258750000 _0_ RTR  --- 69 cbr 210 [0 0 0 0] ------- [0:0 3:0 32 0] [69] 0 0
D 1.258750000 _0_ RTR  IFQ 5 cbr 230 [0 0 0 0] ------- [0:0 3:0 30 0] [5] 0 0
s 1.262500000 _0_ AGT  --- 70 cbr 210 [0 0 0 0] ------- [0:0 3:0 32 0] [70] 0 0
r 1.262500000 _0_ RTR  --- 70 cbr 210 [0 0 0 0] ------- [0:0 3:0 32 0] [70] 0 0
D 1.262500000 _0_ RTR  IFQ 6 cbr 230 [0 0 0 0] ------- [0:0 3:0 30 0] [6] 0 0
s 1.266250000 _0_ AGT  --- 71 cbr 210 [0 0 0 0] ------- [0:0 3:0 32 0] [71] 0 0
r 1.266250000 _0_ RTR  --- 71 cbr 210 [0 0 0 0] ------- [0:0 3:0 32 0] [71] 0 0
D 1.266250000 _0_ RTR  IFQ 7 cbr 230 [0 0 0 0] ------- [0:0 3:0 30 0] [7] 0 0
s 1.270000000 _0_ AGT  --- 72 cbr 210 [0 0 0 0] ------- [0:0 3:0 32 0] [72] 0 0
r 1.270000000 _0_ RTR  --- 72 cbr 210 [0 0 0 0] ------- [0:0 3:0 32 0] [72] 0 0
D 1.270000000 _0_ RTR  IFQ 8 cbr 230 [0 0 0 0] ------- [0:0 3:0 30 0] [8] 0 0
s 1.273750000 _0_ AGT  --- 73 cbr 210 [0 0 0 0] ------- [0:0 3:0 32 0] [73] 0 0
r 1.273750000 _0_ RTR  --- 73 cbr 210 [0 0 0 0] ------- [0:0 3:0 32 0] [73] 0 0
D 1.273750000 _0_ RTR  IFQ 9 cbr 230 [0 0 0 0] ------- [0:0 3:0 30 0] [9] 0 0
s 1.277500000 _0_ AGT  --- 74 cbr 210 [0 0 0 0] ------- [0:0 3:0 32 0] [74] 0 0
r 1.277500000 _0_ RTR  --- 74 cbr 210 [0 0 0 0] ------- [0:0 3:0 32 0] [74] 0 0
D 1.277500000 _0_ RTR  IFQ 10 cbr 230 [0 0 0 0] ------- [0:0 3:0 30 0] [10] 0 0
s 1.281250000 _0_ AGT  --- 75 cbr 210 [0 0 0 0] ------- [0:0 3:0 32 0] [75] 0 0
r 1.281250000 _0_ RTR  --- 75 cbr 210 [0 0 0 0] ------- [0:0 3:0 32 0] [75] 0 0
D 1.281250000 _0_ RTR  IFQ 11 cbr 230 [0 0 0 0] ------- [0:0 3:0 30 0] [11] 0 0
s 1.285000000 _0_ AGT  --- 76 cbr 210 [0 0 0 0] ------- [0:0 3:0 32 0] [76] 0 0
r 1.285000000 _0_ RTR  --- 76 cbr 210 [0 0 0 0] ------- [0:0 3:0 32 0] [76] 0 0
D 1.285000000 _0_ RTR  IFQ 12 cbr 230 [0 0 0 0] ------- [0:0 3:0 30 0] [12] 0 0
s 1.288750000 _0_ AGT  --- 77 cbr 210 [0 0 0 0] ------- [0:0 3:0 32 0] [77] 0 0
r 1.288750000 _0_ RTR  --- 77 cbr 210 [0 0 0 0] ------- [0:0 3:0 32 0] [77] 0 0
D 1.288750000 _0_ RTR  IFQ 13 cbr 230 [0 0 0 0] ------- [0:0 3:0 30 0] [13] 0 0
s 1.292500000 _0_ AGT  --- 78 cbr 210 [0 0 0 0] ------- [0:0 3:0 32 0] [78] 0 0
r 1.292500000 _0_ RTR  --- 78 cbr 210 [0 0 0 0] ------- [0:0 3:0 32 0] [78] 0 0
D 1.292500000 _0_ RTR  IFQ 14 cbr 230 [0 0 0 0] ------- [0:0 3:0 30 0] [14] 0 0
s 1.296250000 _0_ AGT  --- 79 cbr 210 [0 0 0 0] ------- [0:0 3:0 32 0] [79] 0 0
r 1.296250000 _0_ RTR  --- 79 cbr 210 [0 0 0 0] ------- [0:0 3:0 32 0] [79] 0 0
D 1.296250000 _0_ RTR  IFQ 15 cbr 230 [0 0 0 0] ------- [0:0 3:0 30 0] [15] 0 0
s 1.300000000 _0_ AGT  --- 80 cbr 210 [0 0 0 0] ------- [0:0 3:0 32 0] [80] 0 0
r 1.300000000 _0_ RTR  --- 80 cbr 210 [0 0 0 0] ------- [0:0 3:0 32 0] [80] 0 0
D 1.300000000 _0_ RTR  IFQ 16 cbr 230 [0 0 0 0] ------- [0:0 3:0 30 0] [16] 0 0
s 1.303750000 _0_ AGT  --- 81 cbr 210 [0 0 0 0] ------- [0:0 3:0 32 0] [81] 0 0
r 1.303750000 _0_ RTR  --- 81 cbr 210 [0 0 0 0] ------- [0:0 3:0 32 0] [81] 0 0
D 1.303750000 _0_ RTR  IFQ 17 cbr 230 [0 0 0 0] ------- [0:0 3:0 30 0] [17] 0 0
s 1.307500000 _0_ AGT  --- 82 cbr 210 [0 0 0 0] ------- [0:0 3:0 32 0] [82] 0 0
r 1.307500000 _0_ RTR  --- 82 cbr 210 [0 0 0 0] ------- [0:0 3:0 32 0] [82] 0 0
D 1.307500000 _0_ RTR  IFQ 18 cbr 230 [0 0 0 0] ------- [0:0 3:0 30 0] [18] 0 0
s 1.311250000 _0_ AGT  --- 83 cbr 210 [0 0 0 0] ------- [0:0 3:0 32 0] [83] 0 0
r 1.311250000 _0_ RTR  --- 83 cbr 210 [0 0 0 0] ------- [0:0 3:0 32 0] [83] 0 0
D 1.311250000 _0_ RTR  IFQ 19 cbr 230 [0 0 0 0] ------- [0:0 3:0 30 0] [19] 0 0
s 1.315000000 _0_ AGT  --- 84 cbr 210 [0 0 0 0] ------- [0:0 3:0 32 0] [84] 0 0
r 1.315000000 _0_ RTR  --- 84 cbr 210 [0 0 0 0] ------- [0:0 3:0 32 0] [84] 0 0
D 1.315000000 _0_ RTR  IFQ 20 cbr 230 [0 0 0 0] ------- [0:0 3:0 30 0] [20] 0 0
s 1.318750000 _0_ AGT  --- 85 cbr 210 [0 0 0 0] ------- [0:0 3:0 32 0] [85] 0 0
r 1.318750000 _0_ RTR  --- 85 cbr 210 [0 0 0 0] ------- [0:0 3:0 32 0] [85] 0 0
D 1.318750000 _0_ RTR  IFQ 21 cbr 230 [0 0 0 0] ------- [0:0 3:0 30 0] [21] 0 0
s 1.322500000 _0_ AGT  --- 86 cbr 210 [0 0 0 0] ------- [0:0 3:0 32 0] [86] 0 0
r 1.322500000 _0_ RTR  --- 86 cbr 210 [0 0 0 0] ------- [0:0 3:0 32 0] [86] 0 0
D 1.322500000 _0_ RTR  IFQ 22 cbr 230 [0 0 0 0] ------- [0:0 3:0 30 0] [22] 0 0
s 1.326250000 _0_ AGT  --- 87 cbr 210 [0 0 0 0] ------- [0:0 3:0 32 0] [87] 0 0
r 1.326250000 _0_ RTR  --- 87 cbr 210 [0 0 0 0] ------- [0:0 3:0 32 0] [87] 0 0
D 1.326250000 _0_ RTR  IFQ 23 cbr 230 [0 0 0 0] ------- [0:0 3:0 30 0] [23] 0 0
s 1.330000000 _0_ AGT  --- 88 cbr 210 [0 0 0 0] ------- [0:0 3:0 32 0] [88] 0 0
r 1.330000000 _0_ RTR  --- 88 cbr 210 [0 0 0 0] ------- [0:0 3:0 32 0] [88] 0 0
D 1.330000000 _0_ RTR  IFQ 24 cbr 230 [0 0 0 0] ------- [0:0 3:0 30 0] [24] 0 0
s 1.333750000 _0_ AGT  --- 89 cbr 210 [0 0 0 0] ------- [0:0 3:0 32 0] [89] 0 0
r 1.333750000 _0_ RTR  --- 89 cbr 210 [0 0 0 0] ------- [0:0 3:0 32 0] [89] 0 0
D 1.333750000 _0_ RTR  IFQ 25 cbr 230 [0 0 0 0] ------- [0:0 3:0 30 0] [25] 0 0
s 1.337500000 _0_ AGT  --- 90 cbr 210 [0 0 0 0] ------- [0:0 3:0 32 0] [90] 0 0
r 1.337500000 _0_ RTR  --- 90 cbr 210 [0 0 0 0] ------- [0:0 3:0 32 0] [90] 0 0
D 1.337500000 _0_ RTR  IFQ 26 cbr 230 [0 0 0 0] ------- [0:0 3:0 30 0] [26] 0 0
s 1.341250000 _0_ AGT  --- 91 cbr 210 [0 0 0 0] ------- [0:0 3:0 32 0] [91] 0 0
r 1.341250000 _0_ RTR  --- 91 cbr 210 [0 0 0 0] ------- [0:0 3:0 32 0] [91] 0 0
D 1.341250000 _0_ RTR  IFQ 27 cbr 230 [0 0 0 0] ------- [0:0 3:0 30 0] [27] 0 0
s 1.345000000 _0_ AGT  --- 92 cbr 210 [0 0 0 0] ------- [0:0 3:0 32 0] [92] 0 0
r 1.345000000 _0_ RTR  --- 92 cbr 210 [0 0 0 0] ------- [0:0 3:0 32 0] [92] 0 0
D 1.345000000 _0_ RTR  IFQ 28 cbr 230 [0 0 0 0] ------- [0:0 3:0 30 0] [28] 0 0
s 1.348750000 _0_ AGT  --- 93 cbr 210 [0 0 0 0] ------- [0:0 3:0 32 0] [93] 0 0
r 1.348750000 _0_ RTR  --- 93 cbr 210 [0 0 0 0] ------- [0:0 3:0 32 0] [93] 0 0
D 1.348750000 _0_ RTR  IFQ 29 cbr 230 [0 0 0 0] ------- [0:0 3:0 30 0] [29] 0 0
s 1.352500000 _0_ AGT  --- 94 cbr 210 [0 0 0 0] ------- [0:0 3:0 32 0] [94] 0 0
r 1.352500000 _0_ RTR  --- 94 cbr 210 [0 0 0 0] ------- [0:0 3:0 32 0] [94] 0 0
D 1.352500000 _0_ RTR  IFQ 30 cbr 230 [0 0 0 0] ------- [0:0 3:0 30 0] [30] 0 0
s 1.356250000 _0_ AGT  --- 95 cbr 210 [0 0 0 0] ------- [0:0 3:0 32 0] [95] 0 0
r 1.356250000 _0_ RTR  --- 95 cbr 210 [0 0 0 0] ------- [0:0 3:0 32 0] [95] 0 0
D 1.356250000 _0_ RTR  IFQ 31 cbr 230 [0 0 0 0] ------- [0:0 3:0 30 0] [31] 0 0
s 1.360000000 _0_ AGT  --- 96 cbr 210 [0 0 0 0] ------- [0:0 3:0 32 0] [96] 0 0
r 1.360000000 _0_ RTR  --- 96 cbr 210 [0 0 0 0] ------- [0:0 3:0 32 0] [96] 0 0
D 1.360000000 _0_ RTR  IFQ 32 cbr 230 [0 0 0 0] ------- [0:0 3:0 30 0] [32] 0 0
s 1.363750000 _0_ AGT  --- 97 cbr 210 [0 0 0 0] ------- [0:0 3:0 32 0] [97] 0 0
r 1.363750000 _0_ RTR  --- 97 cbr 210 [0 0 0 0] ------- [0:0 3:0 32 0] [97] 0 0
D 1.363750000 _0_ RTR  IFQ 33 cbr 230 [0 0 0 0] ------- [0:0 3:0 30 0] [33] 0 0
s 1.367500000 _0_ AGT  --- 98 cbr 210 [0 0 0 0] ------- [0:0 3:0 32 0] [98] 0 0
r 1.367500000 _0_ RTR  --- 98 cbr 210 [0 0 0 0] ------- [0:0 3:0 32 0] [98] 0 0
D 1.367500000 _0_ RTR  IFQ 34 cbr 230 [0 0 0 0] ------- [0:0 3:0 30 0] [34] 0 0
s 1.371250000 _0_ AGT  --- 99 cbr 210 [0 0 0 0] ------- [0:0 3:0 32 0] [99] 0 0
r 1.371250000 _0_ RTR  --- 99 cbr 210 [0 0 0 0] ------- [0:0 3:0 32 0] [99] 0 0
D 1.371250000 _0_ RTR  IFQ 35 cbr 230 [0 0 0 0] ------- [0:0 3:0 30 0] [35] 0 0
s 1.375000000 _0_ AGT  --- 100 cbr 210 [0 0 0 0] ------- [0:0 3:0 32 0] [100] 0 0
r 1.375000000 _0_ RTR  --- 100 cbr 210 [0 0 0 0] ------- [0:0 3:0 32 0] [100] 0 0
D 1.375000000 _0_ RTR  IFQ 36 cbr 230 [0 0 0 0] ------- [0:0 3:0 30 0] [36] 0 0
s 1.378750000 _0_ AGT  --- 101 cbr 210 [0 0 0 0] ------- [0:0 3:0 32 0] [101] 0 0
r 1.378750000 _0_ RTR  --- 101 cbr 210 [0 0 0 0] ------- [0:0 3:0 32 0] [101] 0 0
D 1.378750000 _0_ RTR  IFQ 37 cbr 230 [0 0 0 0] ------- [0:0 3:0 30 0] [37] 0 0
s 1.382500000 _0_ AGT  --- 102 cbr 210 [0 0 0 0] ------- [0:0 3:0 32 0] [102] 0 0
r 1.382500000 _0_ RTR  --- 102 cbr 210 [0 0 0 0] ------- [0:0 3:0 32 0] [102] 0 0
D 1.382500000 _0_ RTR  IFQ 38 cbr 230 [0 0 0 0] ------- [0:0 3:0 30 0] [38] 0 0
s 1.386250000 _0_ AGT  --- 103 cbr 210 [0 0 0 0] ------- [0:0 3:0 32 0] [103] 0 0
r 1.386250000 _0_ RTR  --- 103 cbr 210 [0 0 0 0] ------- [0:0 3:0 32 0] [103] 0 0
D 1.386250000 _0_ RTR  IFQ 39 cbr 230 [0 0 0 0] ------- [0:0 3:0 30 0] [39] 0 0
s 1.390000000 _0_ AGT  --- 104 cbr 210 [0 0 0 0] ------- [0:0 3:0 32 0] [104] 0 0
r 1.390000000 _0_ RTR  --- 104 cbr 210 [0 0 0 0] ------- [0:0 3:0 32 0] [104] 0 0
D 1.390000000 _0_ RTR  IFQ 40 cbr 230 [0 0 0 0] ------- [0:0 3:0 30 0] [40] 0 0
s 1.393750000 _0_ AGT  --- 105 cbr 210 [0 0 0 0] ------- [0:0 3:0 32 0] [105] 0 0
r 1.393750000 _0_ RTR  --- 105 cbr 210 [0 0 0 0] ------- [0:0 3:0 32 0] [105] 0 0
D 1.393750000 _0_ RTR  IFQ 41 cbr 230 [0 0 0 0] ------- [0:0 3:0 30 0] [41] 0 0
s 1.397500000 _0_ AGT  --- 106 cbr 210 [0 0 0 0] ------- [0:0 3:0 32 0] [106] 0 0
r 1.397500000 _0_ RTR  --- 106 cbr 210 [0 0 0 0] ------- [0:0 3:0 32 0] [106] 0 0
D 1.397500000 _0_ RTR  IFQ 42 cbr 230 [0 0 0 0] ------- [0:0 3:0 30 0] [42] 0 0
s 1.401250000 _0_ AGT  --- 107 cbr 210 [0 0 0 0] ------- [0:0 3:0 32 0] [107] 0 0
r 1.401250000 _0_ RTR  --- 107 cbr 210 [0 0 0 0] ------- [0:0 3:0 32 0] [107] 0 0
D 1.401250000 _0_ RTR  IFQ 43 cbr 230 [0 0 0 0] ------- [0:0 3:0 30 0] [43] 0 0
s 1.405000000 _0_ AGT  --- 108 cbr 210 [0 0 0 0] ------- [0:0 3:0 32 0] [108] 0 0
r 1.405000000 _0_ RTR  --- 108 cbr 210 [0 0 0 0] ------- [0:0 3:0 32 0] [108] 0 0
D 1.405000000 _0_ RTR  IFQ 44 cbr 230 [0 0 0 0] ------- [0:0 3:0 30 0] [44] 0 0
s 1.408750000 _0_ AGT  --- 109 cbr 210 [0 0 0 0] ------- [0:0 3:0 32 0] [109] 0 0
r 1.408750000 _0_ RTR  --- 109 cbr 210 [0 0 0 0] ------- [0:0 3:0 32 0] [109] 0 0
D 1.408750000 _0_ RTR  IFQ 45 cbr 230 [0 0 0 0] ------- [0:0 3:0 30 0] [45] 0 0
s 1.412500000 _0_ AGT  --- 110 cbr 210 [0 0 0 0] ------- [0:0 3:0 32 0] [110] 0 0
r 1.412500000 _0_ RTR  --- 110 cbr 210 [0 0 0 0] ------- [0:0 3:0 32 0] [110] 0 0
D 1.412500000 _0_ RTR  IFQ 46 cbr 230 [0 0 0 0] ------- [0:0 3:0 30 0] [46] 0 0
s 1.416250000 _0_ AGT  --- 111 cbr 210 [0 0 0 0] ------- [0:0 3:0 32 0] [111] 0 0
r 1.416250000 _0_ RTR  --- 111 cbr 210 [0 0 0 0] ------- [0:0 3:0 32 0] [111] 0 0
D 1.416250000 _0_ RTR  IFQ 47 cbr 230 [0 0 0 0] ------- [0:0 3:0 30 0] [47] 0 0
s 1.420000000 _0_ AGT  --- 112 cbr 210 [0 0 0 0] ------- [0:0 3:0 32 0] [112] 0 0
r 1.420000000 _0_ RTR  --- 112 cbr 210 [0 0 0 0] ------- [0:0 3:0 32 0] [112] 0 0
D 1.420000000 _0_ RTR  IFQ 48 cbr 230 [0 0 0 0] ------- [0:0 3:0 30 0] [48] 0 0
s 1.423750000 _0_ AGT  --- 113 cbr 210 [0 0 0 0] ------- [0:0 3:0 32 0] [113] 0 0
r 1.423750000 _0_ RTR  --- 113 cbr 210 [0 0 0 0] ------- [0:0 3:0 32 0] [113] 0 0
D 1.423750000 _0_ RTR  IFQ 49 cbr 230 [0 0 0 0] ------- [0:0 3:0 30 0] [49] 0 0
s 1.427500000 _0_ AGT  --- 114 cbr 210 [0 0 0 0] ------- [0:0 3:0 32 0] [114] 0 0
r 1.427500000 _0_ RTR  --- 114 cbr 210 [0 0 0 0] ------- [0:0 3:0 32 0] [114] 0 0
D 1.427500000 _0_ RTR  IFQ 50 cbr 230 [0 0 0 0] ------- [0:0 3:0 30 0] [50] 0 0
s 1.431250000 _0_ AGT  --- 115 cbr 210 [0 0 0 0] ------- [0:0 3:0 32 0] [115] 0 0
r 1.431250000 _0_ RTR  --- 115 cbr 210 [0 0 0 0] ------- [0:0 3:0 32 0] [115] 0 0
D 1.431250000 _0_ RTR  IFQ 51 cbr 230 [0 0 0 0] ------- [0:0 3:0 30 0] [51] 0 0
s 1.435000000 _0_ AGT  --- 116 cbr 210 [0 0 0 0] ------- [0:0 3:0 32 0] [116] 0 0
r 1.435000000 _0_ RTR  --- 116 cbr 210 [0 0 0 0] ------- [0:0 3:0 32 0] [116] 0 0
D 1.435000000 _0_ RTR  IFQ 52 cbr 230 [0 0 0 0] ------- [0:0 3:0 30 0] [52] 0 0
s 1.438750000 _0_ AGT  --- 117 cbr 210 [0 0 0 0] ------- [0:0 3:0 32 0] [117] 0 0
r 1.438750000 _0_ RTR  --- 117 cbr 210 [0 0 0 0] ------- [0:0 3:0 32 0] [117] 0 0
D 1.438750000 _0_ RTR  IFQ 53 cbr 230 [0 0 0 0] ------- [0:0 3:0 30 0] [53] 0 0
s 1.442500000 _0_ AGT  --- 118 cbr 210 [0 0 0 0] ------- [0:0 3:0 32 0] [118] 0 0
r 1.442500000 _0_ RTR  --- 118 cbr 210 [0 0 0 0] ------- [0:0 3:0 32 0] [118] 0 0
D 1.442500000 _0_ RTR  IFQ 54 cbr 230 [0 0 0 0] ------- [0:0 3:0 30 0] [54] 0 0
s 1.446250000 _0_ AGT  --- 119 cbr 210 [0 0 0 0] ------- [0:0 3:0 32 0] [119] 0 0
r 1.446250000 _0_ RTR  --- 119 cbr 210 [0 0 0 0] ------- [0:0 3:0 32 0] [119] 0 0
D 1.446250000 _0_ RTR  IFQ 55 cbr 230 [0 0 0 0] ------- [0:0 3:0 30 0] [55] 0 0
s 1.450000000 _0_ AGT  --- 120 cbr 210 [0 0 0 0] ------- [0:0 3:0 32 0] [120] 0 0
r 1.450000000 _0_ RTR  --- 120 cbr 210 [0 0 0 0] ------- [0:0 3:0 32 0] [120] 0 0
D 1.450000000 _0_ RTR  IFQ 56 cbr 230 [0 0 0 0] ------- [0:0 3:0 30 0] [56] 0 0
s 1.453750000 _0_ AGT  --- 121 cbr 210 [0 0 0 0] ------- [0:0 3:0 32 0] [121] 0 0
r 1.453750000 _0_ RTR  --- 121 cbr 210 [0 0 0 0] ------- [0:0 3:0 32 0] [121] 0 0
D 1.453750000 _0_ RTR  IFQ 57 cbr 230 [0 0 0 0] ------- [0:0 3:0 30 0] [57] 0 0
s 1.457500000 _0_ AGT  --- 122 cbr 210 [0 0 0 0] ------- [0:0 3:0 32 0] [122] 0 0
r 1.457500000 _0_ RTR  --- 122 cbr 210 [0 0 0 0] ------- [0:0 3:0 32 0] [122] 0 0
D 1.457500000 _0_ RTR  IFQ 58 cbr 230 [0 0 0 0] ------- [0:0 3:0 30 0] [58] 0 0
s 1.461250000 _0_ AGT  --- 123 cbr 210 [0 0 0 0] ------- [0:0 3:0 32 0] [123] 0 0
r 1.461250000 _0_ RTR  --- 123 cbr 210 [0 0 0 0] ------- [0:0 3:0 32 0] [123] 0 0
D 1.461250000 _0_ RTR  IFQ 59 cbr 230 [0 0 0 0] ------- [0:0 3:0 30 0] [59] 0 0
s 1.465000000 _0_ AGT  --- 124 cbr 210 [0 0 0 0] ------- [0:0 3:0 32 0] [124] 0 0
r 1.465000000 _0_ RTR  --- 124 cbr 210 [0 0 0 0] ------- [0:0 3:0 32 0] [124] 0 0
D 1.465000000 _0_ RTR  IFQ 60 cbr 230 [0 0 0 0] ------- [0:0 3:0 30 0] [60] 0 0
s 1.468750000 _0_ AGT  --- 125 cbr 210 [0 0 0 0] ------- [0:0 3:0 32 0] [125] 0 0
r 1.468750000 _0_ RTR  --- 125 cbr 210 [0 0 0 0] ------- [0:0 3:0 32 0] [125] 0 0
D 1.468750000 _0_ RTR  IFQ 61 cbr 230 [0 0 0 0] ------- [0:0 3:0 30 0] [61] 0 0
s 1.472500000 _0_ AGT  --- 126 cbr 210 [0 0 0 0] ------- [0:0 3:0 32 0] [126] 0 0
r 1.472500000 _0_ RTR  --- 126 cbr 210 [0 0 0 0] ------- [0:0 3:0 32 0] [126] 0 0
D 1.472500000 _0_ RTR  IFQ 62 cbr 230 [0 0 0 0] ------- [0:0 3:0 30 0] [62] 0 0
s 1.476250000 _0_ AGT  --- 127 cbr 210 [0 0 0 0] ------- [0:0 3:0 32 0] [127] 0 0
r 1.476250000 _0_ RTR  --- 127 cbr 210 [0 0 0 0] ------- [0:0 3:0 32 0] [127] 0 0
D 1.476250000 _0_ RTR  IFQ 63 cbr 230 [0 0 0 0] ------- [0:0 3:0 30 0] [63] 0 0
s 1.480000000 _0_ AGT  --- 128 cbr 210 [0 0 0 0] ------- [0:0 3:0 32 0] [128] 0 0
r 1.480000000 _0_ RTR  --- 128 cbr 210 [0 0 0 0] ------- [0:0 3:0 32 0] [128] 0 0
D 1.480000000 _0_ RTR  IFQ 64 cbr 230 [0 0 0 0] ------- [0:0 3:0 30 0] [64] 0 0
s 1.483750000 _0_ AGT  --- 129 cbr 210 [0 0 0 0] ------- [0:0 3:0 32 0] [129] 0 0
r 1.483750000 _0_ RTR  --- 129 cbr 210 [0 0 0 0] ------- [0:0 3:0 32 0] [129] 0 0
D 1.483750000 _0_ RTR  IFQ 65 cbr 230 [0 0 0 0] ------- [0:0 3:0 30 0] [65] 0 0
s 1.487500000 _0_ AGT  --- 130 cbr 210 [0 0 0 0] ------- [0:0 3:0 32 0] [130] 0 0
r 1.487500000 _0_ RTR  --- 130 cbr 210 [0 0 0 0] ------- [0:0 3:0 32 0] [130] 0 0
D 1.487500000 _0_ RTR  IFQ 66 cbr 230 [0 0 0 0] ------- [0:0 3:0 30 0] [66] 0 0
s 1.491250000 _0_ AGT  --- 131 cbr 210 [0 0 0 0] ------- [0:0 3:0 32 0] [131] 0 0
r 1.491250000 _0_ RTR  --- 131 cbr 210 [0 0 0 0] ------- [0:0 3:0 32 0] [131] 0 0
D 1.491250000 _0_ RTR  IFQ 67 cbr 230 [0 0 0 0] ------- [0:0 3:0 30 0] [67] 0 0
s 1.495000000 _0_ AGT  --- 132 cbr 210 [0 0 0 0] ------- [0:0 3:0 32 0] [132] 0 0
r 1.495000000 _0_ RTR  --- 132 cbr 210 [0 0 0 0] ------- [0:0 3:0 32 0] [132] 0 0
D 1.495000000 _0_ RTR  IFQ 68 cbr 230 [0 0 0 0] ------- [0:0 3:0 30 0] [68] 0 0
s 1.498750000 _0_ AGT  --- 133 cbr 210 [0 0 0 0] ------- [0:0 3:0 32 0] [133] 0 0
r 1.498750000 _0_ RTR  --- 133 cbr 210 [0 0 0 0] ------- [0:0 3:0 32 0] [133] 0 0
D 1.498750000 _0_ RTR  IFQ 69 cbr 230 [0 0 0 0] ------- [0:0 3:0 30 0] [69] 0 0
s 1.502500000 _0_ AGT  --- 134 cbr 210 [0 0 0 0] ------- [0:0 3:0 32 0] [134] 0 0
r 1.502500000 _0_ RTR  --- 134 cbr 210 [0 0 0 0] ------- [0:0 3:0 32 0] [134] 0 0
D 1.502500000 _0_ RTR  IFQ 70 cbr 230 [0 0 0 0] ------- [0:0 3:0 30 0] [70] 0 0
s 1.506250000 _0_ AGT  --- 135 cbr 210 [0 0 0 0] ------- [0:0 3:0 32 0] [135] 0 0
r 1.506250000 _0_ RTR  --- 135 cbr 210 [0 0 0 0] ------- [0:0 3:0 32 0] [135] 0 0
D 1.506250000 _0_ RTR  IFQ 71 cbr 230 [0 0 0 0] ------- [0:0 3:0 30 0] [71] 0 0
s 1.510000000 _0_ AGT  --- 136 cbr 210 [0 0 0 0] ------- [0:0 3:0 32 0] [136] 0 0
r 1.510000000 _0_ RTR  --- 136 cbr 210 [0 0 0 0] ------- [0:0 3:0 32 0] [136] 0 0
D 1.510000000 _0_ RTR  IFQ 72 cbr 230 [0 0 0 0] ------- [0:0 3:0 30 0] [72] 0 0
s 1.513750000 _0_ AGT  --- 137 cbr 210 [0 0 0 0] ------- [0:0 3:0 32 0] [137] 0 0
r 1.513750000 _0_ RTR  --- 137 cbr 210 [0 0 0 0] ------- [0:0 3:0 32 0] [137] 0 0
D 1.513750000 _0_ RTR  IFQ 73 cbr 230 [0 0 0 0] ------- [0:0 3:0 30 0] [73] 0 0
s 1.517500000 _0_ AGT  --- 138 cbr 210 [0 0 0 0] ------- [0:0 3:0 32 0] [138] 0 0
r 1.517500000 _0_ RTR  --- 138 cbr 210 [0 0 0 0] ------- [0:0 3:0 32 0] [138] 0 0
D 1.517500000 _0_ RTR  IFQ 74 cbr 230 [0 0 0 0] ------- [0:0 3:0 30 0] [74] 0 0
s 1.521250000 _0_ AGT  --- 139 cbr 210 [0 0 0 0] ------- [0:0 3:0 32 0] [139] 0 0
r 1.521250000 _0_ RTR  --- 139 cbr 210 [0 0 0 0] ------- [0:0 3:0 32 0] [139] 0 0
D 1.521250000 _0_ RTR  IFQ 75 cbr 230 [0 0 0 0] ------- [0:0 3:0 30 0] [75] 0 0
s 1.525000000 _0_ AGT  --- 140 cbr 210 [0 0 0 0] ------- [0:0 3:0 32 0] [140] 0 0