+ 0.5 1 0 tcp 40 ------- 3 1.0 0.0 0 0
- 0.5 1 0 tcp 40 ------- 3 1.0 0.0 0 0
r 0.51032 1 0 tcp 40 ------- 3 1.0 0.0 0 0
+ 0.51032 0 1 ack 40 ------- 3 0.0 1.0 0 1
- 0.51032 0 1 ack 40 ------- 3 0.0 1.0 0 1
r 0.52064 0 1 ack 40 ------- 3 0.0 1.0 0 1
+ 0.52064 1 0 tcp 1040 ------- 3 1.0 0.0 1 2
- 0.52064 1 0 tcp 1040 ------- 3 1.0 0.0 1 2
+ 0.52064 1 0 tcp 1040 ------- 3 1.0 0.0 2 3
- 0.52896 1 0 tcp 1040 ------- 3 1.0 0.0 2 3
r 0.53896 1 0 tcp 1040 ------- 3 1.0 0.0 1 2
+ 0.53896 0 1 ack 40 ------- 3 0.0 1.0 1 4
- 0.53896 0 1 ack 40 ------- 3 0.0 1.0 1 4
r 0.54728 1 0 tcp 1040 ------- 3 1.0 0.0 2 3
+ 0.54728 0 1 ack 40 ------- 3 0.0 1.0 2 5
- 0.54728 0 1 ack 40 ------- 3 0.0 1.0 2 5
r 0.54928 0 1 ack 40 ------- 3 0.0 1.0 1 4
+ 0.54928 1 0 tcp 1040 ------- 3 1.0 0.0 3 6
- 0.54928 1 0 tcp 1040 ------- 3 1.0 0.0 3 6
+ 0.54928 1 0 tcp 1040 ------- 3 1.0 0.0 4 7
r 0.5576 0 1 ack 40 ------- 3 0.0 1.0 2 5
+ 0.5576 1 0 tcp 1040 ------- 3 1.0 0.0 5 8
+ 0.5576 1 0 tcp 1040 ------- 3 1.0 0.0 6 9
- 0.5576 1 0 tcp 1040 ------- 3 1.0 0.0 4 7
- 0.56592 1 0 tcp 1040 ------- 3 1.0 0.0 5 8
r 0.5676 1 0 tcp 1040 ------- 3 1.0 0.0 3 6
+ 0.5676 0 1 ack 40 ------- 3 0.0 1.0 3 10
- 0.5676 0 1 ack 40 ------- 3 0.0 1.0 3 10
- 0.57424 1 0 tcp 1040 ------- 3 1.0 0.0 6 9
r 0.57592 1 0 tcp 1040 ------- 3 1.0 0.0 4 7
+ 0.57592 0 1 ack 40 ------- 3 0.0 1.0 4 11
- 0.57592 0 1 ack 40 ------- 3 0.0 1.0 4 11
r 0.57792 0 1 ack 40 ------- 3 0.0 1.0 3 10
+ 0.57792 1 0 tcp 1040 ------- 3 1.0 0.0 7 12
+ 0.57792 1 0 tcp 1040 ------- 3 1.0 0.0 8 13
- 0.58256 1 0 tcp 1040 ------- 3 1.0 0.0 7 12
r 0.58424 1 0 tcp 1040 ------- 3 1.0 0.0 5 8
+ 0.58424 0 1 ack 40 ------- 3 0.0 1.0 5 14
- 0.58424 0 1 ack 40 ------- 3 0.0 1.0 5 14
r 0.58624 0 1 ack 40 ------- 3 0.0 1.0 4 11
+ 0.58624 1 0 tcp 1040 ------- 3 1.0 0.0 9 15
+ 0.59 1 0 tcp 1040 ------- 3 1.0 0.0 10 16
- 0.59088 1 0 tcp 1040 ------- 3 1.0 0.0 8 13
r 0.59256 1 0 tcp 1040 ------- 3 1.0 0.0 6 9
+ 0.59256 0 1 ack 40 ------- 3 0.0 1.0 6 17
- 0.59256 0 1 ack 40 ------- 3 0.0 1.0 6 17
r 0.59456 0 1 ack 40 ------- 3 0.0 1.0 5 14
- 0.5992 1 0 tcp 1040 ------- 3 1.0 0.0 9 15
+ 0.6 1 0 tcp 1040 ------- 3 1.0 0.0 11 18
r 0.60088 1 0 tcp 1040 ------- 3 1.0 0.0 7 12
+ 0.60088 0 1 ack 40 ------- 3 0.0 1.0 7 19
- 0.60088 0 1 ack 40 ------- 3 0.0 1.0 7 19
r 0.60288 0 1 ack 40 ------- 3 0.0 1.0 6 17
- 0.60752 1 0 tcp 1040 ------- 3 1.0 0.0 10 16
r 0.6092 1 0 tcp 1040 ------- 3 1.0 0.0 8 13
+ 0.6092 0 1 ack 40 ------- 3 0.0 1.0 8 20
- 0.6092 0 1 ack 40 ------- 3 0.0 1.0 8 20
+ 0.61 1 0 tcp 1040 ------- 3 1.0 0.0 12 21
r 0.6112 0 1 ack 40 ------- 3 0.0 1.0 7 19
- 0.61584 1 0 tcp 1040 ------- 3 1.0 0.0 11 18
r 0.61752 1 0 tcp 1040 ------- 3 1.0 0.0 9 15
+ 0.61752 0 1 ack 40 ------- 3 0.0 1.0 9 22
- 0.61752 0 1 ack 40 ------- 3 0.0 1.0 9 22
r 0.61952 0 1 ack 40 ------- 3 0.0 1.0 8 20
+ 0.62 1 0 tcp 1040 ------- 3 1.0 0.0 13 23
- 0.62416 1 0 tcp 1040 ------- 3 1.0 0.0 12 21
r 0.62584 1 0 tcp 1040 ------- 3 1.0 0.0 10 16
+ 0.62584 0 1 ack 40 ------- 3 0.0 1.0 10 24
- 0.62584 0 1 ack 40 ------- 3 0.0 1.0 10 24
r 0.62784 0 1 ack 40 ------- 3 0.0 1.0 9 22
+ 0.63 1 0 tcp 1040 ------- 3 1.0 0.0 14 25
- 0.63248 1 0 tcp 1040 ------- 3 1.0 0.0 13 23
r 0.63416 1 0 tcp 1040 ------- 3 1.0 0.0 11 18
+ 0.63416 0 1 ack 40 ------- 3 0.0 1.0 11 26
- 0.63416 0 1 ack 40 ------- 3 0.0 1.0 11 26
r 0.63616 0 1 ack 40 ------- 3 0.0 1.0 10 24
+ 0.64 1 0 tcp 1040 ------- 3 1.0 0.0 15 27
- 0.6408 1 0 tcp 1040 ------- 3 1.0 0.0 14 25
r 0.64248 1 0 tcp 1040 ------- 3 1.0 0.0 12 21
+ 0.64248 0 1 ack 40 ------- 3 0.0 1.0 12 28
- 0.64248 0 1 ack 40 ------- 3 0.0 1.0 12 28
r 0.64448 0 1 ack 40 ------- 3 0.0 1.0 11 26
- 0.64912 1 0 tcp 1040 ------- 3 1.0 0.0 15 27
+ 0.65 1 0 tcp 1040 ------- 3 1.0 0.0 16 29
r 0.6508 1 0 tcp 1040 ------- 3 1.0 0.0 13 23
+ 0.6508 0 1 ack 40 ------- 3 0.0 1.0 13 30
- 0.6508 0 1 ack 40 ------- 3 0.0 1.0 13 30
r 0.6528 0 1 ack 40 ------- 3 0.0 1.0 12 28
- 0.65744 1 0 tcp 1040 ------- 3 1.0 0.0 16 29
r 0.65912 1 0 tcp 1040 ------- 3 1.0 0.0 14 25
+ 0.65912 0 1 ack 40 ------- 3 0.0 1.0 14 31
- 0.65912 0 1 ack 40 ------- 3 0.0 1.0 14 31
+ 0.66 1 0 tcp 1040 ------- 3 1.0 0.0 17 32
r 0.66112 0 1 ack 40 ------- 3 0.0 1.0 13 30
- 0.66576 1 0 tcp 1040 ------- 3 1.0 0.0 17 32
r 0.66744 1 0 tcp 1040 ------- 3 1.0 0.0 15 27
+ 0.66744 0 1 ack 40 ------- 3 0.0 1.0 15 33
- 0.66744 0 1 ack 40 ------- 3 0.0 1.0 15 33
r 0.66944 0 1 ack 40 ------- 3 0.0 1.0 14 31
+ 0.67 1 0 tcp 1040 ------- 3 1.0 0.0 18 34
- 0.67408 1 0 tcp 1040 ------- 3 1.0 0.0 18 34
r 0.67576 1 0 tcp 1040 ------- 3 1.0 0.0 16 29
+ 0.67576 0 1 ack 40 ------- 3 0.0 1.0 16 35
- 0.67576 0 1 ack 40 ------- 3 0.0 1.0 16 35
r 0.67776 0 1 ack 40 ------- 3 0.0 1.0 15 33
+ 0.68 1 0 tcp 1040 ------- 3 1.0 0.0 19 36
- 0.6824 1 0 tcp 1040 ------- 3 1.0 0.0 19 36
r 0.68408 1 0 tcp 1040 ------- 3 1.0 0.0 17 32
+ 0.68408 0 1 ack 40 ------- 3 0.0 1.0 17 37
- 0.68408 0 1 ack 40 ------- 3 0.0 1.0 17 37
r 0.68608 0 1 ack 40 ------- 3 0.0 1.0 16 35
+ 0.69 1 0 tcp 1040 ------- 3 1.0 0.0 20 38
- 0.69072 1 0 tcp 1040 ------- 3 1.0 0.0 20 38
r 0.6924 1 0 tcp 1040 ------- 3 1.0 0.0 18 34
+ 0.6924 0 1 ack 40 ------- 3 0.0 1.0 18 39
- 0.6924 0 1 ack 40 ------- 3 0.0 1.0 18 39
r 0.6944 0 1 ack 40 ------- 3 0.0 1.0 17 37
+ 0.7 1 0 tcp 1040 ------- 3 1.0 0.0 21 40
- 0.7 1 0 tcp 1040 ------- 3 1.0 0.0 21 40
r 0.70072 1 0 tcp 1040 ------- 3 1.0 0.0 19 36
+ 0.70072 0 1 ack 40 ------- 3 0.0 1.0 19 41
- 0.70072 0 1 ack 40 ------- 3 0.0 1.0 19 41
r 0.70272 0 1 ack 40 ------- 3 0.0 1.0 18 39
r 0.70904 1 0 tcp 1040 ------- 3 1.0 0.0 20 38
+ 0.70904 0 1 ack 40 ------- 3 0.0 1.0 20 42
- 0.70904 0 1 ack 40 ------- 3 0.0 1.0 20 42
+ 0.71 1 0 tcp 1040 ------- 3 1.0 0.0 22 43
- 0.71 1 0 tcp 1040 ------- 3 1.0 0.0 22 43
r 0.71104 0 1 ack 40 ------- 3 0.0 1.0 19 41
r 0.71832 1 0 tcp 1040 ------- 3 1.0 0.0 21 40
+ 0.71832 0 1 ack 40 ------- 3 0.0 1.0 21 44
- 0.71832 0 1 ack 40 ------- 3 0.0 1.0 21 44
r 0.71936 0 1 ack 40 ------- 3 0.0 1.0 20 42
+ 0.72 1 0 tcp 1040 ------- 3 1.0 0.0 23 45
- 0.72 1 0 tcp 1040 ------- 3 1.0 0.0 23 45
r 0.72832 1 0 tcp 1040 ------- 3 1.0 0.0 22 43
+ 0.72832 0 1 ack 40 ------- 3 0.0 1.0 22 46
- 0.72832 0 1 ack 40 ------- 3 0.0 1.0 22 46
r 0.72864 0 1 ack 40 ------- 3 0.0 1.0 21 44
+ 0.73 1 0 tcp 1040 ------- 3 1.0 0.0 24 47
- 0.73 1 0 tcp 1040 ------- 3 1.0 0.0 24 47
r 0.73832 1 0 tcp 1040 ------- 3 1.0 0.0 23 45
+ 0.73832 0 1 ack 40 ------- 3 0.0 1.0 23 48
- 0.73832 0 1 ack 40 ------- 3 0.0 1.0 23 48
r 0.73864 0 1 ack 40 ------- 3 0.0 1.0 22 46
+ 0.74 1 0 tcp 1040 ------- 3 1.0 0.0 25 49
- 0.74 1 0 tcp 1040 ------- 3 1.0 0.0 25 49
r 0.74832 1 0 tcp 1040 ------- 3 1.0 0.0 24 47
+ 0.74832 0 1 ack 40 ------- 3 0.0 1.0 24 50
- 0.74832 0 1 ack 40 ------- 3 0.0 1.0 24 50
r 0.74864 0 1 ack 40 ------- 3 0.0 1.0 23 48
+ 0.75 1 0 tcp 1040 ------- 3 1.0 0.0 26 51
- 0.75 1 0 tcp 1040 ------- 3 1.0 0.0 26 51
r 0.75832 1 0 tcp 1040 ------- 3 1.0 0.0 25 49
+ 0.75832 0 1 ack 40 ------- 3 0.0 1.0 25 52
- 0.75832 0 1 ack 40 ------- 3 0.0 1.0 25 52
r 0.75864 0 1 ack 40 ------- 3 0.0 1.0 24 50
+ 0.76 1 0 tcp 1040 ------- 3 1.0 0.0 27 53
- 0.76 1 0 tcp 1040 ------- 3 1.0 0.0 27 53
r 0.76832 1 0 tcp 1040 ------- 3 1.0 0.0 26 51
+ 0.76832 0 1 ack 40 ------- 3 0.0 1.0 26 54
- 0.76832 0 1 ack 40 ------- 3 0.0 1.0 26 54
r 0.76864 0 1 ack 40 ------- 3 0.0 1.0 25 52
+ 0.77 1 0 tcp 1040 ------- 3 1.0 0.0 28 55
- 0.77 1 0 tcp 1040 ------- 3 1.0 0.0 28 55
r 0.77832 1 0 tcp 1040 ------- 3 1.0 0.0 27 53
+ 0.77832 0 1 ack 40 ------- 3 0.0 1.0 27 56
- 0.77832 0 1 ack 40 ------- 3 0.0 1.0 27 56
r 0.77864 0 1 ack 40 ------- 3 0.0 1.0 26 54
+ 0.78 1 0 tcp 1040 ------- 3 1.0 0.0 29 57
- 0.78 1 0 tcp 1040 ------- 3 1.0 0.0 29 57
r 0.78832 1 0 tcp 1040 ------- 3 1.0 0.0 28 55
+ 0.78832 0 1 ack 40 ------- 3 0.0 1.0 28 58
- 0.78832 0 1 ack 40 ------- 3 0.0 1.0 28 58
r 0.78864 0 1 ack 40 ------- 3 0.0 1.0 27 56
+ 0.79 1 0 tcp 1040 ------- 3 1.0 0.0 30 59
- 0.79 1 0 tcp 1040 ------- 3 1.0 0.0 30 59
r 0.79832 1 0 tcp 1040 ------- 3 1.0 0.0 29 57
+ 0.79832 0 1 ack 40 ------- 3 0.0 1.0 29 60
- 0.79832 0 1 ack 40 ------- 3 0.0 1.0 29 60
r 0.79864 0 1 ack 40 ------- 3 0.0 1.0 28 58
+ 0.8 1 0 tcp 1040 ------- 3 1.0 0.0 31 61
- 0.8 1 0 tcp 1040 ------- 3 1.0 0.0 31 61
r 0.80832 1 0 tcp 1040 ------- 3 1.0 0.0 30 59
+ 0.80832 0 1 ack 40 ------- 3 0.0 1.0 30 62
- 0.80832 0 1 ack 40 ------- 3 0.0 1.0 30 62
r 0.80864 0 1 ack 40 ------- 3 0.0 1.0 29 60
+ 0.81 1 0 tcp 1040 ------- 3 1.0 0.0 32 63
- 0.81 1 0 tcp 1040 ------- 3 1.0 0.0 32 63
r 0.81832 1 0 tcp 1040 ------- 3 1.0 0.0 31 61
+ 0.81832 0 1 ack 40 ------- 3 0.0 1.0 31 64
- 0.81832 0 1 ack 40 ------- 3 0.0 1.0 31 64
r 0.81864 0 1 ack 40 ------- 3 0.0 1.0 30 62
+ 0.82 1 0 tcp 1040 ------- 3 1.0 0.0 33 65
- 0.82 1 0 tcp 1040 ------- 3 1.0 0.0 33 65
r 0.82832 1 0 tcp 1040 ------- 3 1.0 0.0 32 63
+ 0.82832 0 1 ack 40 ------- 3 0.0 1.0 32 66
- 0.82832 0 1 ack 40 ------- 3 0.0 1.0 32 66
r 0.82864 0 1 ack 40 ------- 3 0.0 1.0 31 64
+ 0.83 1 0 tcp 1040 ------- 3 1.0 0.0 34 67
- 0.83 1 0 tcp 1040 ------- 3 1.0 0.0 34 67
r 0.83832 1 0 tcp 1040 ------- 3 1.0 0.0 33 65
+ 0.83832 0 1 ack 40 ------- 3 0.0 1.0 33 68
- 0.83832 0 1 ack 40 ------- 3 0.0 1.0 33 68
r 0.83864 0 1 ack 40 ------- 3 0.0 1.0 32 66
+ 0.84 1 0 tcp 1040 ------- 3 1.0 0.0 35 69
- 0.84 1 0 tcp 1040 ------- 3 1.0 0.0 35 69
r 0.84832 1 0 tcp 1040 ------- 3 1.0 0.0 34 67
+ 0.84832 0 1 ack 40 ------- 3 0.0 1.0 34 70
- 0.84832 0 1 ack 40 ------- 3 0.0 1.0 34 70
r 0.84864 0 1 ack 40 ------- 3 0.0 1.0 33 68
+ 0.85 1 0 tcp 1040 ------- 3 1.0 0.0 36 71
- 0.85 1 0 tcp 1040 ------- 3 1.0 0.0 36 71
r 0.85832 1 0 tcp 1040 ------- 3 1.0 0.0 35 69
+ 0.85832 0 1 ack 40 ------- 3 0.0 1.0 35 72
- 0.85832 0 1 ack 40 ------- 3 0.0 1.0 35 72
r 0.85864 0 1 ack 40 ------- 3 0.0 1.0 34 70
+ 0.86 1 0 tcp 1040 ------- 3 1.0 0.0 37 73
- 0.86 1 0 tcp 1040 ------- 3 1.0 0.0 37 73
r 0.86832 1 0 tcp 1040 ------- 3 1.0 0.0 36 71
+ 0.86832 0 1 ack 40 ------- 3 0.0 1.0 36 74
- 0.86832 0 1 ack 40 ------- 3 0.0 1.0 36 74
r 0.86864 0 1 ack 40 ------- 3 0.0 1.0 35 72
+ 0.87 1 0 tcp 1040 ------- 3 1.0 0.0 38 75
- 0.87 1 0 tcp 1040 ------- 3 1.0 0.0 38 75
r 0.87832 1 0 tcp 1040 ------- 3 1.0 0.0 37 73
+ 0.87832 0 1 ack 40 ------- 3 0.0 1.0 37 76
- 0.87832 0 1 ack 40 ------- 3 0.0 1.0 37 76
r 0.87864 0 1 ack 40 ------- 3 0.0 1.0 36 74
+ 0.88 1 0 tcp 1040 ------- 3 1.0 0.0 39 77
- 0.88 1 0 tcp 1040 ------- 3 1.0 0.0 39 77
r 0.88832 1 0 tcp 1040 ------- 3 1.0 0.0 38 75
+ 0.88832 0 1 ack 40 ------- 3 0.0 1.0 38 78
- 0.88832 0 1 ack 40 ------- 3 0.0 1.0 38 78
r 0.88864 0 1 ack 40 ------- 3 0.0 1.0 37 76
+ 0.89 1 0 tcp 1040 ------- 3 1.0 0.0 40 79
- 0.89 1 0 tcp 1040 ------- 3 1.0 0.0 40 79
r 0.89832 1 0 tcp 1040 ------- 3 1.0 0.0 39 77
+ 0.89832 0 1 ack 40 ------- 3 0.0 1.0 39 80
- 0.89832 0 1 ack 40 ------- 3 0.0 1.0 39 80
r 0.89864 0 1 ack 40 ------- 3 0.0 1.0 38 78
+ 0.9 1 0 tcp 1040 ------- 3 1.0 0.0 41 81
- 0.9 1 0 tcp 1040 ------- 3 1.0 0.0 41 81
r 0.90832 1 0 tcp 1040 ------- 3 1.0 0.0 40 79
+ 0.90832 0 1 ack 40 ------- 3 0.0 1.0 40 82
- 0.90832 0 1 ack 40 ------- 3 0.0 1.0 40 82
r 0.90864 0 1 ack 40 ------- 3 0.0 1.0 39 80
+ 0.91 1 0 tcp 1040 ------- 3 1.0 0.0 42 83
- 0.91 1 0 tcp 1040 ------- 3 1.0 0.0 42 83
r 0.91832 1 0 tcp 1040 ------- 3 1.0 0.0 41 81
+ 0.91832 0 1 ack 40 ------- 3 0.0 1.0 41 84
- 0.91832 0 1 ack 40 ------- 3 0.0 1.0 41 84
r 0.91864 0 1 ack 40 ------- 3 0.0 1.0 40 82
+ 0.92 1 0 tcp 1040 ------- 3 1.0 0.0 43 85
- 0.92 1 0 tcp 1040 ------- 3 1.0 0.0 43 85
r 0.92832 1 0 tcp 1040 ------- 3 1.0 0.0 42 83
+ 0.92832 0 1 ack 40 ------- 3 0.0 1.0 42 86
- 0.92832 0 1 ack 40 ------- 3 0.0 1.0 42 86
r 0.92864 0 1 ack 40 ------- 3 0.0 1.0 41 84
+ 0.93 1 0 tcp 1040 ------- 3 1.0 0.0 44 87
- 0.93 1 0 tcp 1040 ------- 3 1.0 0.0 44 87
r 0.93832 1 0 tcp 1040 ------- 3 1.0 0.0 43 85
+ 0.93832 0 1 ack 40 ------- 3 0.0 1.0 43 88
- 0.93832 0 1 ack 40 ------- 3 0.0 1.0 43 88
r 0.93864 0 1 ack 40 ------- 3 0.0 1.0 42 86
+ 0.94 1 0 tcp 1040 ------- 3 1.0 0.0 45 89
- 0.94 1 0 tcp 1040 ------- 3 1.0 0.0 45 89
r 0.94832 1 0 tcp 1040 ------- 3 1.0 0.0 44 87
+ 0.94832 0 1 ack 40 ------- 3 0.0 1.0 44 90
- 0.94832 0 1 ack 40 ------- 3 0.0 1.0 44 90
r 0.94864 0 1 ack 40 ------- 3 0.0 1.0 43 88
+ 0.95 1 0 tcp 1040 ------- 3 1.0 0.0 46 91
- 0.95 1 0 tcp 1040 ------- 3 1.0 0.0 46 91
r 0.95832 1 0 tcp 1040 ------- 3 1.0 0.0 45 89
+ 0.95832 0 1 ack 40 ------- 3 0.0 1.0 45 92
- 0.95832 0 1 ack 40 ------- 3 0.0 1.0 45 92
r 0.95864 0 1 ack 40 ------- 3 0.0 1.0 44 90
+ 0.96 1 0 tcp 1040 ------- 3 1.0 0.0 47 93
- 0.96 1 0 tcp 1040 ------- 3 1.0 0.0 47 93
r 0.96832 1 0 tcp 1040 ------- 3 1.0 0.0 46 91
+ 0.96832 0 1 ack 40 ------- 3 0.0 1.0 46 94
- 0.96832 0 1 ack 40 ------- 3 0.0 1.0 46 94
r 0.96864 0 1 ack 40 ------- 3 0.0 1.0 45 92
+ 0.97 1 0 tcp 1040 ------- 3 1.0 0.0 48 95
- 0.97 1 0 tcp 1040 ------- 3 1.0 0.0 48 95
r 0.97832 1 0 tcp 1040 ------- 3 1.0 0.0 47 93
+ 0.97832 0 1 ack 40 ------- 3 0.0 1.0 47 96
- 0.97832 0 1 ack 40 ------- 3 0.0 1.0 47 96
r 0.97864 0 1 ack 40 ------- 3 0.0 1.0 46 94
+ 0.98 1 0 tcp 1040 ------- 3 1.0 0.0 49 97
- 0.98 1 0 tcp 1040 ------- 3 1.0 0.0 49 97
r 0.98832 1 0 tcp 1040 ------- 3 1.0 0.0 48 95
+ 0.98832 0 1 ack 40 ------- 3 0.0 1.0 48 98
- 0.98832 0 1 ack 40 ------- 3 0.0 1.0 48 98
r 0.98864 0 1 ack 40 ------- 3 0.0 1.0 47 96
+ 0.99 1 0 tcp 1040 ------- 3 1.0 0.0 50 99
- 0.99 1 0 tcp 1040 ------- 3 1.0 0.0 50 99
r 0.99832 1 0 tcp 1040 ------- 3 1.0 0.0 49 97
+ 0.99832 0 1 ack 40 ------- 3 0.0 1.0 49 100
- 0.99832 0 1 ack 40 ------- 3 0.0 1.0 49 100
r 0.99864 0 1 ack 40 ------- 3 0.0 1.0 48 98
+ 1 1 0 tcp 1040 ------- 3 1.0 0.0 51 101
- 1 1 0 tcp 1040 ------- 3 1.0 0.0 51 101
r 1.00832 1 0 tcp 1040 ------- 3 1.0 0.0 50 99
+ 1.00832 0 1 ack 40 ------- 3 0.0 1.0 50 102
- 1.00832 0 1 ack 40 ------- 3 0.0 1.0 50 102
r 1.00864 0 1 ack 40 ------- 3 0.0 1.0 49 100
+ 1.01 1 0 tcp 1040 ------- 3 1.0 0.0 52 103
- 1.01 1 0 tcp 1040 ------- 3 1.0 0.0 52 103
r 1.01832 1 0 tcp 1040 ------- 3 1.0 0.0 51 101
+ 1.01832 0 1 ack 40 ------- 3 0.0 1.0 51 104
- 1.01832 0 1 ack 40 ------- 3 0.0 1.0 51 104
r 1.01864 0 1 ack 40 ------- 3 0.0 1.0 50 102
+ 1.02 1 0 tcp 1040 ------- 3 1.0 0.0 53 105
- 1.02 1 0 tcp 1040 ------- 3 1.0 0.0 53 105
r 1.02832 1 0 tcp 1040 ------- 3 1.0 0.0 52 103
+ 1.02832 0 1 ack 40 ------- 3 0.0 1.0 52 106
- 1.02832 0 1 ack 40 ------- 3 0.0 1.0 52 106
r 1.02864 0 1 ack 40 ------- 3 0.0 1.0 51 104
+ 1.03 1 0 tcp 1040 ------- 3 1.0 0.0 54 107
- 1.03 1 0 tcp 1040 ------- 3 1.0 0.0 54 107
r 1.03832 1 0 tcp 1040 ------- 3 1.0 0.0 53 105
+ 1.03832 0 1 ack 40 ------- 3 0.0 1.0 53 108
- 1.03832 0 1 ack 40 ------- 3 0.0 1.0 53 108
r 1.03864 0 1 ack 40 ------- 3 0.0 1.0 52 106
+ 1.04 1 0 tcp 1040 ------- 3 1.0 0.0 55 109
- 1.04 1 0 tcp 1040 ------- 3 1.0 0.0 55 109
r 1.04832 1 0 tcp 1040 ------- 3 1.0 0.0 54 107
+ 1.04832 0 1 ack 40 ------- 3 0.0 1.0 54 110
- 1.04832 0 1 ack 40 ------- 3 0.0 1.0 54 110
r 1.04864 0 1 ack 40 ------- 3 0.0 1.0 53 108
+ 1.05 1 0 tcp 1040 ------- 3 1.0 0.0 56 111
- 1.05 1 0 tcp 1040 ------- 3 1.0 0.0 56 111
r 1.05832 1 0 tcp 1040 ------- 3 1.0 0.0 55 109
+ 1.05832 0 1 ack 40 ------- 3 0.0 1.0 55 112
- 1.05832 0 1 ack 40 ------- 3 0.0 1.0 55 112
r 1.05864 0 1 ack 40 ------- 3 0.0 1.0 54 110
+ 1.06 1 0 tcp 1040 ------- 3 1.0 0.0 57 113
- 1.06 1 0 tcp 1040 ------- 3 1.0 0.0 57 113
r 1.06832 1 0 tcp 1040 ------- 3 1.0 0.0 56 111
+ 1.06832 0 1 ack 40 ------- 3 0.0 1.0 56 114
- 1.06832 0 1 ack 40 ------- 3 0.0 1.0 56 114
r 1.06864 0 1 ack 40 ------- 3 0.0 1.0 55 112
+ 1.07 1 0 tcp 1040 ------- 3 1.0 0.0 58 115
- 1.07 1 0 tcp 1040 ------- 3 1.0 0.0 58 115
r 1.07832 1 0 tcp 1040 ------- 3 1.0 0.0 57 113
+ 1.07832 0 1 ack 40 ------- 3 0.0 1.0 57 116
- 1.07832 0 1 ack 40 ------- 3 0.0 1.0 57 116
r 1.07864 0 1 ack 40 ------- 3 0.0 1.0 56 114
+ 1.08 1 0 tcp 1040 ------- 3 1.0 0.0 59 117
- 1.08 1 0 tcp 1040 ------- 3 1.0 0.0 59 117
r 1.08832 1 0 tcp 1040 ------- 3 1.0 0.0 58 115
+ 1.08832 0 1 ack 40 ------- 3 0.0 1.0 58 118
- 1.08832 0 1 ack 40 ------- 3 0.0 1.0 58 118
r 1.08864 0 1 ack 40 ------- 3 0.0 1.0 57 116
+ 1.09 1 0 tcp 1040 ------- 3 1.0 0.0 60 119
- 1.09 1 0 tcp 1040 ------- 3 1.0 0.0 60 119
r 1.09832 1 0 tcp 1040 ------- 3 1.0 0.0 59 117
+ 1.09832 0 1 ack 40 ------- 3 0.0 1.0 59 120
- 1.09832 0 1 ack 40 ------- 3 0.0 1.0 59 120
r 1.09864 0 1 ack 40 ------- 3 0.0 1.0 58 118
+ 1.1 1 0 tcp 1040 ------- 3 1.0 0.0 61 121
- 1.1 1 0 tcp 1040 ------- 3 1.0 0.0 61 121
r 1.10832 1 0 tcp 1040 ------- 3 1.0 0.0 60 119
+ 1.10832 0 1 ack 40 ------- 3 0.0 1.0 60 122
- 1.10832 0 1 ack 40 ------- 3 0.0 1.0 60 122
r 1.10864 0 1 ack 40 ------- 3 0.0 1.0 59 120
+ 1.11 1 0 tcp 1040 ------- 3 1.0 0.0 62 123
- 1.11 1 0 tcp 1040 ------- 3 1.0 0.0 62 123
r 1.11832 1 0 tcp 1040 ------- 3 1.0 0.0 61 121
+ 1.11832 0 1 ack 40 ------- 3 0.0 1.0 61 124
- 1.11832 0 1 ack 40 ------- 3 0.0 1.0 61 124
r 1.11864 0 1 ack 40 ------- 3 0.0 1.0 60 122
+ 1.12 1 0 tcp 1040 ------- 3 1.0 0.0 63 125
- 1.12 1 0 tcp 1040 ------- 3 1.0 0.0 63 125
r 1.12832 1 0 tcp 1040 ------- 3 1.0 0.0 62 123
+ 1.12832 0 1 ack 40 ------- 3 0.0 1.0 62 126
- 1.12832 0 1 ack 40 ------- 3 0.0 1.0 62 126
r 1.12864 0 1 ack 40 ------- 3 0.0 1.0 61 124
+ 1.13 1 0 tcp 1040 ------- 3 1.0 0.0 64 127
- 1.13 1 0 tcp 1040 ------- 3 1.0 0.0 64 127
r 1.13832 1 0 tcp 1040 ------- 3 1.0 0.0 63 125
+ 1.13832 0 1 ack 40 ------- 3 0.0 1.0 63 128
- 1.13832 0 1 ack 40 ------- 3 0.0 1.0 63 128
r 1.13864 0 1 ack 40 ------- 3 0.0 1.0 62 126
+ 1.14 1 0 tcp 1040 ------- 3 1.0 0.0 65 129
- 1.14 1 0 tcp 1040 ------- 3 1.0 0.0 65 129
r 1.14832 1 0 tcp 1040 ------- 3 1.0 0.0 64 127
+ 1.14832 0 1 ack 40 ------- 3 0.0 1.0 64 130
- 1.14832 0 1 ack 40 ------- 3 0.0 1.0 64 130
r 1.14864 0 1 ack 40 ------- 3 0.0 1.0 63 128
+ 1.15 1 0 tcp 1040 ------- 3 1.0 0.0 66 131
- 1.15 1 0 tcp 1040 ------- 3 1.0 0.0 66 131
r 1.15832 1 0 tcp 1040 ------- 3 1.0 0.0 65 129
+ 1.15832 0 1 ack 40 ------- 3 0.0 1.0 65 132
- 1.15832 0 1 ack 40 ------- 3 0.0 1.0 65 132
r 1.15864 0 1 ack 40 ------- 3 0.0 1.0 64 130
+ 1.16 1 0 tcp 1040 ------- 3 1.0 0.0 67 133
- 1.16 1 0 tcp 1040 ------- 3 1.0 0.0 67 133
r 1.16832 1 0 tcp 1040 ------- 3 1.0 0.0 66 131
+ 1.16832 0 1 ack 40 ------- 3 0.0 1.0 66 134
- 1.16832 0 1 ack 40 ------- 3 0.0 1.0 66 134
r 1.16864 0 1 ack 40 ------- 3 0.0 1.0 65 132
+ 1.17 1 0 tcp 1040 ------- 3 1.0 0.0 68 135
- 1.17 1 0 tcp 1040 ------- 3 1.0 0.0 68 135
r 1.17832 1 0 tcp 1040 ------- 3 1.0 0.0 67 133
+ 1.17832 0 1 ack 40 ------- 3 0.0 1.0 67 136
- 1.17832 0 1 ack 40 ------- 3 0.0 1.0 67 136
r 1.17864 0 1 ack 40 ------- 3 0.0 1.0 66 134
+ 1.18 1 0 tcp 1040 ------- 3 1.0 0.0 69 137
- 1.18 1 0 tcp 1040 ------- 3 1.0 0.0 69 137
r 1.18832 1 0 tcp 1040 ------- 3 1.0 0.0 68 135
+ 1.18832 0 1 ack 40 ------- 3 0.0 1.0 68 138
- 1.18832 0 1 ack 40 ------- 3 0.0 1.0 68 138
r 1.18864 0 1 ack 40 ------- 3 0.0 1.0 67 136
+ 1.19 1 0 tcp 1040 ------- 3 1.0 0.0 70 139
- 1.19 1 0 tcp 1040 ------- 3 1.0 0.0 70 139
r 1.19832 1 0 tcp 1040 ------- 3 1.0 0.0 69 137
+ 1.19832 0 1 ack 40 ------- 3 0.0 1.0 69 140
- 1.19832 0 1 ack 40 ------- 3 0.0 1.0 69 140
r 1.19864 0 1 ack 40 ------- 3 0.0 1.0 68 138
+ 1.2 1 0 tcp 1040 ------- 3 1.0 0.0 71 141
- 1.2 1 0 tcp 1040 ------- 3 1.0 0.0 71 141
r 1.20832 1 0 tcp 1040 ------- 3 1.0 0.0 70 139
+ 1.20832 0 1 ack 40 ------- 3 0.0 1.0 70 142
- 1.20832 0 1 ack 40 ------- 3 0.0 1.0 70 142
r 1.20864 0 1 ack 40 ------- 3 0.0 1.0 69 140
+ 1.21 1 0 tcp 1040 ------- 3 1.0 0.0 72 143
- 1.21 1 0 tcp 1040 ------- 3 1.0 0.0 72 143
r 1.21832 1 0 tcp 1040 ------- 3 1.0 0.0 71 141
+ 1.21832 0 1 ack 40 ------- 3 0.0 1.0 71 144
- 1.21832 0 1 ack 40 ------- 3 0.0 1.0 71 144
r 1.21864 0 1 ack 40 ------- 3 0.0 1.0 70 142
+ 1.22 1 0 tcp 1040 ------- 3 1.0 0.0 73 145
- 1.22 1 0 tcp 1040 ------- 3 1.0 0.0 73 145
r 1.22832 1 0 tcp 1040 ------- 3 1.0 0.0 72 143
+ 1.22832 0 1 ack 40 ------- 3 0.0 1.0 72 146
- 1.22832 0 1 ack 40 ------- 3 0.0 1.0 72 146
r 1.22864 0 1 ack 40 ------- 3 0.0 1.0 71 144
+ 1.23 1 0 tcp 1040 ------- 3 1.0 0.0 74 147
- 1.23 1 0 tcp 1040 ------- 3 1.0 0.0 74 147
r 1.23832 1 0 tcp 1040 ------- 3 1.0 0.0 73 145
+ 1.23832 0 1 ack 40 ------- 3 0.0 1.0 73 148
- 1.23832 0 1 ack 40 ------- 3 0.0 1.0 73 148
r 1.23864 0 1 ack 40 ------- 3 0.0 1.0 72 146
+ 1.24 1 0 tcp 1040 ------- 3 1.0 0.0 75 149
- 1.24 1 0 tcp 1040 ------- 3 1.0 0.0 75 149
r 1.24832 1 0 tcp 1040 ------- 3 1.0 0.0 74 147
+ 1.24832 0 1 ack 40 ------- 3 0.0 1.0 74 150
- 1.24832 0 1 ack 40 ------- 3 0.0 1.0 74 150
r 1.24864 0 1 ack 40 ------- 3 0.0 1.0 73 148
+ 1.25 1 0 tcp 1040 ------- 3 1.0 0.0 76 151
- 1.25 1 0 tcp 1040 ------- 3 1.0 0.0 76 151
r 1.25832 1 0 tcp 1040 ------- 3 1.0 0.0 75 149
+ 1.25832 0 1 ack 40 ------- 3 0.0 1.0 75 152
- 1.25832 0 1 ack 40 ------- 3 0.0 1.0 75 152
r 1.25864 0 1 ack 40 ------- 3 0.0 1.0 74 150
+ 1.26 1 0 tcp 1040 ------- 3 1.0 0.0 77 153
- 1.26 1 0 tcp 1040 ------- 3 1.0 0.0 77 153
r 1.26832 1 0 tcp 1040 ------- 3 1.0 0.0 76 151
+ 1.26832 0 1 ack 40 ------- 3 0.0 1.0 76 154
- 1.26832 0 1 ack 40 ------- 3 0.0 1.0 76 154
r 1.26864 0 1 ack 40 ------- 3 0.0 1.0 75 152
+ 1.27 1 0 tcp 1040 ------- 3 1.0 0.0 78 155
- 1.27 1 0 tcp 1040 ------- 3 1.0 0.0 78 155
r 1.27832 1 0 tcp 1040 ------- 3 1.0 0.0 77 153
+ 1.27832 0 1 ack 40 ------- 3 0.0 1.0 77 156
- 1.27832 0 1 ack 40 ------- 3 0.0 1.0 77 156
r 1.27864 0 1 ack 40 ------- 3 0.0 1.0 76 154
+ 1.28 1 0 tcp 1040 ------- 3 1.0 0.0 79 157
- 1.28 1 0 tcp 1040 ------- 3 1.0 0.0 79 157
r 1.28832 1 0 tcp 1040 ------- 3 1.0 0.0 78 155
+ 1.28832 0 1 ack 40 ------- 3 0.0 1.0 78 158
- 1.28832 0 1 ack 40 ------- 3 0.0 1.0 78 158
r 1.28864 0 1 ack 40 ------- 3 0.0 1.0 77 156
+ 1.29 1 0 tcp 1040 ------- 3 1.0 0.0 80 159
- 1.29 1 0 tcp 1040 ------- 3 1.0 0.0 80 159
r 1.29832 1 0 tcp 1040 ------- 3 1.0 0.0 79 157
+ 1.29832 0 1 ack 40 ------- 3 0.0 1.0 79 160
- 1.29832 0 1 ack 40 ------- 3 0.0 1.0 79 160
r 1.29864 0 1 ack 40 ------- 3 0.0 1.0 78 158
+ 1.3 1 0 tcp 1040 ------- 3 1.0 0.0 81 161
- 1.3 1 0 tcp 1040 ------- 3 1.0 0.0 81 161
r 1.30832 1 0 tcp 1040 ------- 3 1.0 0.0 80 159
+ 1.30832 0 1 ack 40 ------- 3 0.0 1.0 80 162
- 1.30832 0 1 ack 40 ------- 3 0.0 1.0 80 162
r 1.30864 0 1 ack 40 ------- 3 0.0 1.0 79 160
+ 1.31 1 0 tcp 1040 ------- 3 1.0 0.0 82 163
- 1.31 1 0 tcp 1040 ------- 3 1.0 0.0 82 163
r 1.31832 1 0 tcp 1040 ------- 3 1.0 0.0 81 161
+ 1.31832 0 1 ack 40 ------- 3 0.0 1.0 81 164
- 1.31832 0 1 ack 40 ------- 3 0.0 1.0 81 164
r 1.31864 0 1 ack 40 ------- 3 0.0 1.0 80 162
+ 1.32 1 0 tcp 1040 ------- 3 1.0 0.0 83 165
- 1.32 1 0 tcp 1040 ------- 3 1.0 0.0 83 165
r 1.32832 1 0 tcp 1040 ------- 3 1.0 0.0 82 163
+ 1.32832 0 1 ack 40 ------- 3 0.0 1.0 82 166
- 1.32832 0 1 ack 40 ------- 3 0.0 1.0 82 166
r 1.32864 0 1 ack 40 ------- 3 0.0 1.0 81 164
+ 1.33 1 0 tcp 1040 ------- 3 1.0 0.0 84 167
- 1.33 1 0 tcp 1040 ------- 3 1.0 0.0 84 167
r 1.33832 1 0 tcp 1040 ------- 3 1.0 0.0 83 165
+ 1.33832 0 1 ack 40 ------- 3 0.0 1.0 83 168
- 1.33832 0 1 ack 40 ------- 3 0.0 1.0 83 168
r 1.33864 0 1 ack 40 ------- 3 0.0 1.0 82 166
+ 1.34 1 0 tcp 1040 ------- 3 1.0 0.0 85 169
- 1.34 1 0 tcp 1040 ------- 3 1.0 0.0 85 169
r 1.34832 1 0 tcp 1040 ------- 3 1.0 0.0 84 167
+ 1.34832 0 1 ack 40 ------- 3 0.0 1.0 84 170
- 1.34832 0 1 ack 40 ------- 3 0.0 1.0 84 170
r 1.34864 0 1 ack 40 ------- 3 0.0 1.0 83 168
+ 1.35 1 0 tcp 1040 ------- 3 1.0 0.0 86 171
- 1.35 1 0 tcp 1040 ------- 3 1.0 0.0 86 171
r 1.35832 1 0 tcp 1040 ------- 3 1.0 0.0 85 169
+ 1.35832 0 1 ack 40 ------- 3 0.0 1.0 85 172
- 1.35832 0 1 ack 40 ------- 3 0.0 1.0 85 172
r 1.35864 0 1 ack 40 ------- 3 0.0 1.0 84 170
+ 1.36 1 0 tcp 1040 ------- 3 1.0 0.0 87 173
- 1.36 1 0 tcp 1040 ------- 3 1.0 0.0 87 173
r 1.36832 1 0 tcp 1040 ------- 3 1.0 0.0 86 171
+ 1.36832 0 1 ack 40 ------- 3 0.0 1.0 86 174
- 1.36832 0 1 ack 40 ------- 3 0.0 1.0 86 174
r 1.36864 0 1 ack 40 ------- 3 0.0 1.0 85 172
+ 1.37 1 0 tcp 1040 ------- 3 1.0 0.0 88 175
- 1.37 1 0 tcp 1040 ------- 3 1.0 0.0 88 175
r 1.37832 1 0 tcp 1040 ------- 3 1.0 0.0 87 173
+ 1.37832 0 1 ack 40 ------- 3 0.0 1.0 87 176
- 1.37832 0 1 ack 40 ------- 3 0.0 1.0 87 176
r 1.37864 0 1 ack 40 ------- 3 0.0 1.0 86 174
+ 1.38 1 0 tcp 1040 ------- 3 1.0 0.0 89 177
- 1.38 1 0 tcp 1040 ------- 3 1.0 0.0 89 177
r 1.38832 1 0 tcp 1040 ------- 3 1.0 0.0 88 175
+ 1.38832 0 1 ack 40 ------- 3 0.0 1.0 88 178
- 1.38832 0 1 ack 40 ------- 3 0.0 1.0 88 178
r 1.38864 0 1 ack 40 ------- 3 0.0 1.0 87 176
+ 1.39 1 0 tcp 1040 ------- 3 1.0 0.0 90 179
- 1.39 1 0 tcp 1040 ------- 3 1.0 0.0 90 179
r 1.39832 1 0 tcp 1040 ------- 3 1.0 0.0 89 177
+ 1.39832 0 1 ack 40 ------- 3 0.0 1.0 89 180
- 1.39832 0 1 ack 40 ------- 3 0.0 1.0 89 180
r 1.39864 0 1 ack 40 ------- 3 0.0 1.0 88 178
+ 1.4 1 0 tcp 1040 ------- 3 1.0 0.0 91 181
- 1.4 1 0 tcp 1040 ------- 3 1.0 0.0 91 181
r 1.40832 1 0 tcp 1040 ------- 3 1.0 0.0 90 179
+ 1.40832 0 1 ack 40 ------- 3 0.0 1.0 90 182
- 1.40832 0 1 ack 40 ------- 3 0.0 1.0 90 182
r 1.40864 0 1 ack 40 ------- 3 0.0 1.0 89 180
+ 1.41 1 0 tcp 1040 ------- 3 1.0 0.0 92 183
- 1.41 1 0 tcp 1040 ------- 3 1.0 0.0 92 183
r 1.41832 1 0 tcp 1040 ------- 3 1.0 0.0 91 181
+ 1.41832 0 1 ack 40 ------- 3 0.0 1.0 91 184
- 1.41832 0 1 ack 40 ------- 3 0.0 1.0 91 184
r 1.41864 0 1 ack 40 ------- 3 0.0 1.0 90 182
+ 1.42 1 0 tcp 1040 ------- 3 1.0 0.0 93 185
- 1.42 1 0 tcp 1040 ------- 3 1.0 0.0 93 185
r 1.42832 1 0 tcp 1040 ------- 3 1.0 0.0 92 183
+ 1.42832 0 1 ack 40 ------- 3 0.0 1.0 92 186
- 1.42832 0 1 ack 40 ------- 3 0.0 1.0 92 186
r 1.42864 0 1 ack 40 ------- 3 0.0 1.0 91 184
+ 1.43 1 0 tcp 1040 ------- 3 1.0 0.0 94 187
- 1.43 1 0 tcp 1040 ------- 3 1.0 0.0 94 187
r 1.43832 1 0 tcp 1040 ------- 3 1.0 0.0 93 185
+ 1.43832 0 1 ack 40 ------- 3 0.0 1.0 93 188
- 1.43832 0 1 ack 40 ------- 3 0.0 1.0 93 188
r 1.43864 0 1 ack 40 ------- 3 0.0 1.0 92 186
+ 1.44 1 0 tcp 1040 ------- 3 1.0 0.0 95 189
- 1.44 1 0 tcp 1040 ------- 3 1.0 0.0 95 189
r 1.44832 1 0 tcp 1040 ------- 3 1.0 0.0 94 187
+ 1.44832 0 1 ack 40 ------- 3 0.0 1.0 94 190
- 1.44832 0 1 ack 40 ------- 3 0.0 1.0 94 190
r 1.44864 0 1 ack 40 ------- 3 0.0 1.0 93 188
+ 1.45 1 0 tcp 1040 ------- 3 1.0 0.0 96 191
- 1.45 1 0 tcp 1040 ------- 3 1.0 0.0 96 191
r 1.45832 1 0 tcp 1040 ------- 3 1.0 0.0 95 189
+ 1.45832 0 1 ack 40 ------- 3 0.0 1.0 95 192
- 1.45832 0 1 ack 40 ------- 3 0.0 1.0 95 192
r 1.45864 0 1 ack 40 ------- 3 0.0 1.0 94 190
+ 1.46 1 0 tcp 1040 ------- 3 1.0 0.0 97 193
- 1.46 1 0 tcp 1040 ------- 3 1.0 0.0 97 193
r 1.46832 1 0 tcp 1040 ------- 3 1.0 0.0 96 191
+ 1.46832 0 1 ack 40 ------- 3 0.0 1.0 96 194
- 1.46832 0 1 ack 40 ------- 3 0.0 1.0 96 194
r 1.46864 0 1 ack 40 ------- 3 0.0 1.0 95 192
+ 1.47 1 0 tcp 1040 ------- 3 1.0 0.0 98 195
- 1.47 1 0 tcp 1040 ------- 3 1.0 0.0 98 195
r 1.47832 1 0 tcp 1040 ------- 3 1.0 0.0 97 193
+ 1.47832 0 1 ack 40 ------- 3 0.0 1.0 97 196
- 1.47832 0 1 ack 40 ------- 3 0.0 1.0 97 196
r 1.47864 0 1 ack 40 ------- 3 0.0 1.0 96 194
+ 1.48 1 0 tcp 1040 ------- 3 1.0 0.0 99 197
- 1.48 1 0 tcp 1040 ------- 3 1.0 0.0 99 197
r 1.48832 1 0 tcp 1040 ------- 3 1.0 0.0 98 195
+ 1.48832 0 1 ack 40 ------- 3 0.0 1.0 98 198
- 1.48832 0 1 ack 40 ------- 3 0.0 1.0 98 198
r 1.48864 0 1 ack 40 ------- 3 0.0 1.0 97 196
+ 1.49 1 0 tcp 1040 ------- 3 1.0 0.0 100 199
- 1.49 1 0 tcp 1040 ------- 3 1.0 0.0 100 199
r 1.49832 1 0 tcp 1040 ------- 3 1.0 0.0 99 197
+ 1.49832 0 1 ack 40 ------- 3 0.0 1.0 99 200
- 1.49832 0 1 ack 40 ------- 3 0.0 1.0 99 200
r 1.49864 0 1 ack 40 ------- 3 0.0 1.0 98 198
+ 1.5 1 0 tcp 1040 ------- 3 1.0 0.0 101 201
- 1.5 1 0 tcp 1040 ------- 3 1.0 0.0 101 201
r 1.50832 1 0 tcp 1040 ------- 3 1.0 0.0 100 199
+ 1.50832 0 1 ack 40 ------- 3 0.0 1.0 100 202
- 1.50832 0 1 ack 40 ------- 3 0.0 1.0 100 202
r 1.50864 0 1 ack 40 ------- 3 0.0 1.0 99 200
+ 1.51 1 0 tcp 1040 ------- 3 1.0 0.0 102 203
- 1.51 1 0 tcp 1040 ------- 3 1.0 0.0 102 203
r 1.51832 1 0 tcp 1040 ------- 3 1.0 0.0 101 201
+ 1.51832 0 1 ack 40 ------- 3 0.0 1.0 101 204
- 1.51832 0 1 ack 40 ------- 3 0.0 1.0 101 204
r 1.51864 0 1 ack 40 ------- 3 0.0 1.0 100 202
+ 1.52 1 0 tcp 1040 ------- 3 1.0 0.0 103 205
- 1.52 1 0 tcp 1040 ------- 3 1.0 0.0 103 205
r 1.52832 1 0 tcp 1040 ------- 3 1.0 0.0 102 203
+ 1.52832 0 1 ack 40 ------- 3 0.0 1.0 102 206
- 1.52832 0 1 ack 40 ------- 3 0.0 1.0 102 206
r 1.52864 0 1 ack 40 ------- 3 0.0 1.0 101 204
+ 1.53 1 0 tcp 1040 ------- 3 1.0 0.0 104 207
- 1.53 1 0 tcp 1040 ------- 3 1.0 0.0 104 207
r 1.53832 1 0 tcp 1040 ------- 3 1.0 0.0 103 205
+ 1.53832 0 1 ack 40 ------- 3 0.0 1.0 103 208
- 1.53832 0 1 ack 40 ------- 3 0.0 1.0 103 208
r 1.53864 0 1 ack 40 ------- 3 0.0 1.0 102 206
+ 1.54 1 0 tcp 1040 ------- 3 1.0 0.0 105 209
- 1.54 1 0 tcp 1040 ------- 3 1.0 0.0 105 209
r 1.54832 1 0 tcp 1040 ------- 3 1.0 0.0 104 207
+ 1.54832 0 1 ack 40 ------- 3 0.0 1.0 104 210
- 1.54832 0 1 ack 40 ------- 3 0.0 1.0 104 210
r 1.54864 0 1 ack 40 ------- 3 0.0 1.0 103 208
+ 1.55 1 0 tcp 1040 ------- 3 1.0 0.0 106 211
- 1.55 1 0 tcp 1040 ------- 3 1.0 0.0 106 211
r 1.55832 1 0 tcp 1040 ------- 3 1.0 0.0 105 209
+ 1.55832 0 1 ack 40 ------- 3 0.0 1.0 105 212
- 1.55832 0 1 ack 40 ------- 3 0.0 1.0 105 212
r 1.55864 0 1 ack 40 ------- 3 0.0 1.0 104 210
+ 1.56 1 0 tcp 1040 ------- 3 1.0 0.0 107 213
- 1.56 1 0 tcp 1040 ------- 3 1.0 0.0 107 213
r 1.56832 1 0 tcp 1040 ------- 3 1.0 0.0 106 211
+ 1.56832 0 1 ack 40 ------- 3 0.0 1.0 106 214
- 1.56832 0 1 ack 40 ------- 3 0.0 1.0 106 214
r 1.56864 0 1 ack 40 ------- 3 0.0 1.0 105 212
+ 1.57 1 0 tcp 1040 ------- 3 1.0 0.0 108 215
- 1.57 1 0 tcp 1040 ------- 3 1.0 0.0 108 215
r 1.57832 1 0 tcp 1040 ------- 3 1.0 0.0 107 213
+ 1.57832 0 1 ack 40 ------- 3 0.0 1.0 107 216
- 1.57832 0 1 ack 40 ------- 3 0.0 1.0 107 216
r 1.57864 0 1 ack 40 ------- 3 0.0 1.0 106 214
+ 1.58 1 0 tcp 1040 ------- 3 1.0 0.0 109 217
- 1.58 1 0 tcp 1040 ------- 3 1.0 0.0 109 217
r 1.58832 1 0 tcp 1040 ------- 3 1.0 0.0 108 215
+ 1.58832 0 1 ack 40 ------- 3 0.0 1.0 108 218
- 1.58832 0 1 ack 40 ------- 3 0.0 1.0 108 218
r 1.58864 0 1 ack 40 ------- 3 0.0 1.0 107 216
+ 1.59 1 0 tcp 1040 ------- 3 1.0 0.0 110 219
- 1.59 1 0 tcp 1040 ------- 3 1.0 0.0 110 219
r 1.59832 1 0 tcp 1040 ------- 3 1.0 0.0 109 217