+ 0.00017 0 1 rtProtoDV 4 ------- 0 0.4 1.2 -1 0
- 0.00017 0 1 rtProtoDV 4 ------- 0 0.4 1.2 -1 0
+ 0.00017 0 2 rtProtoDV 4 ------- 0 0.4 2.2 -1 1
- 0.00017 0 2 rtProtoDV 4 ------- 0 0.4 2.2 -1 1
+ 0.00017 0 3 rtProtoDV 4 ------- 0 0.4 3.2 -1 2
- 0.00017 0 3 rtProtoDV 4 ------- 0 0.4 3.2 -1 2
r 0.004186 0 1 rtProtoDV 4 ------- 0 0.4 1.2 -1 0
+ 0.004186 1 0 rtProtoDV 4 ------- 0 1.2 0.4 -1 3
- 0.004186 1 0 rtProtoDV 4 ------- 0 1.2 0.4 -1 3
r 0.004186 0 2 rtProtoDV 4 ------- 0 0.4 2.2 -1 1
+ 0.004186 2 0 rtProtoDV 4 ------- 0 2.2 0.4 -1 4
- 0.004186 2 0 rtProtoDV 4 ------- 0 2.2 0.4 -1 4
r 0.004186 0 3 rtProtoDV 4 ------- 0 0.4 3.2 -1 2
+ 0.004186 3 0 rtProtoDV 4 ------- 0 3.2 0.4 -1 5
- 0.004186 3 0 rtProtoDV 4 ------- 0 3.2 0.4 -1 5
+ 0.007102 2 0 rtProtoDV 4 ------- 0 2.2 0.4 -1 6
- 0.007102 2 0 rtProtoDV 4 ------- 0 2.2 0.4 -1 6
r 0.008202 1 0 rtProtoDV 4 ------- 0 1.2 0.4 -1 3
r 0.008202 2 0 rtProtoDV 4 ------- 0 2.2 0.4 -1 4
r 0.008202 3 0 rtProtoDV 4 ------- 0 3.2 0.4 -1 5
r 0.011118 2 0 rtProtoDV 4 ------- 0 2.2 0.4 -1 6
+ 0.044061 3 0 rtProtoDV 4 ------- 0 3.2 0.4 -1 7
- 0.044061 3 0 rtProtoDV 4 ------- 0 3.2 0.4 -1 7
r 0.048077 3 0 rtProtoDV 4 ------- 0 3.2 0.4 -1 7
+ 0.27794 1 0 rtProtoDV 4 ------- 0 1.2 0.4 -1 8
- 0.27794 1 0 rtProtoDV 4 ------- 0 1.2 0.4 -1 8
r 0.281956 1 0 rtProtoDV 4 ------- 0 1.2 0.4 -1 8
+ 0.5 1 0 tcp 40 ------- 2 1.0 0.0 0 9
- 0.5 1 0 tcp 40 ------- 2 1.0 0.0 0 9
r 0.50416 1 0 tcp 40 ------- 2 1.0 0.0 0 9
+ 0.50416 0 1 ack 40 ------- 2 0.0 1.0 0 10
- 0.50416 0 1 ack 40 ------- 2 0.0 1.0 0 10
r 0.50832 0 1 ack 40 ------- 2 0.0 1.0 0 10
+ 0.50832 1 0 tcp 1040 ------- 2 1.0 0.0 1 11
- 0.50832 1 0 tcp 1040 ------- 2 1.0 0.0 1 11
+ 0.50832 1 0 tcp 1040 ------- 2 1.0 0.0 2 12
- 0.51248 1 0 tcp 1040 ------- 2 1.0 0.0 2 12
r 0.51648 1 0 tcp 1040 ------- 2 1.0 0.0 1 11
+ 0.51648 0 1 ack 40 ------- 2 0.0 1.0 1 13
- 0.51648 0 1 ack 40 ------- 2 0.0 1.0 1 13
r 0.52064 0 1 ack 40 ------- 2 0.0 1.0 1 13
+ 0.52064 1 0 tcp 1040 ------- 2 1.0 0.0 3 14
- 0.52064 1 0 tcp 1040 ------- 2 1.0 0.0 3 14
+ 0.52064 1 0 tcp 1040 ------- 2 1.0 0.0 4 15
r 0.52064 1 0 tcp 1040 ------- 2 1.0 0.0 2 12
+ 0.52064 0 1 ack 40 ------- 2 0.0 1.0 2 16
- 0.52064 0 1 ack 40 ------- 2 0.0 1.0 2 16
- 0.5248 1 0 tcp 1040 ------- 2 1.0 0.0 4 15
r 0.5248 0 1 ack 40 ------- 2 0.0 1.0 2 16
+ 0.5248 1 0 tcp 1040 ------- 2 1.0 0.0 5 17
+ 0.5248 1 0 tcp 1040 ------- 2 1.0 0.0 6 18
r 0.5288 1 0 tcp 1040 ------- 2 1.0 0.0 3 14
+ 0.5288 0 1 ack 40 ------- 2 0.0 1.0 3 19
- 0.5288 0 1 ack 40 ------- 2 0.0 1.0 3 19
- 0.52896 1 0 tcp 1040 ------- 2 1.0 0.0 5 17
r 0.53296 1 0 tcp 1040 ------- 2 1.0 0.0 4 15
+ 0.53296 0 1 ack 40 ------- 2 0.0 1.0 4 20
- 0.53296 0 1 ack 40 ------- 2 0.0 1.0 4 20
r 0.53296 0 1 ack 40 ------- 2 0.0 1.0 3 19
+ 0.53296 1 0 tcp 1040 ------- 2 1.0 0.0 7 21
+ 0.53296 1 0 tcp 1040 ------- 2 1.0 0.0 8 22
- 0.53312 1 0 tcp 1040 ------- 2 1.0 0.0 6 18
r 0.53712 0 1 ack 40 ------- 2 0.0 1.0 4 20
+ 0.53712 1 0 tcp 1040 ------- 2 1.0 0.0 9 23
+ 0.53712 1 0 tcp 1040 ------- 2 1.0 0.0 10 24
r 0.53712 1 0 tcp 1040 ------- 2 1.0 0.0 5 17
+ 0.53712 0 1 ack 40 ------- 2 0.0 1.0 5 25
- 0.53712 0 1 ack 40 ------- 2 0.0 1.0 5 25
- 0.53728 1 0 tcp 1040 ------- 2 1.0 0.0 7 21
r 0.54128 1 0 tcp 1040 ------- 2 1.0 0.0 6 18
+ 0.54128 0 1 ack 40 ------- 2 0.0 1.0 6 26
- 0.54128 0 1 ack 40 ------- 2 0.0 1.0 6 26
r 0.54128 0 1 ack 40 ------- 2 0.0 1.0 5 25
+ 0.54128 1 0 tcp 1040 ------- 2 1.0 0.0 11 27
+ 0.54128 1 0 tcp 1040 ------- 2 1.0 0.0 12 28
- 0.54144 1 0 tcp 1040 ------- 2 1.0 0.0 8 22
r 0.54544 0 1 ack 40 ------- 2 0.0 1.0 6 26
+ 0.54544 1 0 tcp 1040 ------- 2 1.0 0.0 13 29
r 0.54544 1 0 tcp 1040 ------- 2 1.0 0.0 7 21
+ 0.54544 0 1 ack 40 ------- 2 0.0 1.0 7 30
- 0.54544 0 1 ack 40 ------- 2 0.0 1.0 7 30
- 0.5456 1 0 tcp 1040 ------- 2 1.0 0.0 9 23
+ 0.54875 1 0 tcp 1040 ------- 2 1.0 0.0 14 31
r 0.5496 1 0 tcp 1040 ------- 2 1.0 0.0 8 22
+ 0.5496 0 1 ack 40 ------- 2 0.0 1.0 8 32
- 0.5496 0 1 ack 40 ------- 2 0.0 1.0 8 32
r 0.5496 0 1 ack 40 ------- 2 0.0 1.0 7 30
- 0.54976 1 0 tcp 1040 ------- 2 1.0 0.0 10 24
+ 0.5525 1 0 tcp 1040 ------- 2 1.0 0.0 15 33
r 0.55376 0 1 ack 40 ------- 2 0.0 1.0 8 32
r 0.55376 1 0 tcp 1040 ------- 2 1.0 0.0 9 23
+ 0.55376 0 1 ack 40 ------- 2 0.0 1.0 9 34
- 0.55376 0 1 ack 40 ------- 2 0.0 1.0 9 34
- 0.55392 1 0 tcp 1040 ------- 2 1.0 0.0 11 27
+ 0.55625 1 0 tcp 1040 ------- 2 1.0 0.0 16 35
r 0.55792 1 0 tcp 1040 ------- 2 1.0 0.0 10 24
+ 0.55792 0 1 ack 40 ------- 2 0.0 1.0 10 36
- 0.55792 0 1 ack 40 ------- 2 0.0 1.0 10 36
r 0.55792 0 1 ack 40 ------- 2 0.0 1.0 9 34
- 0.55808 1 0 tcp 1040 ------- 2 1.0 0.0 12 28
+ 0.56 1 0 tcp 1040 ------- 2 1.0 0.0 17 37
r 0.56208 0 1 ack 40 ------- 2 0.0 1.0 10 36
r 0.56208 1 0 tcp 1040 ------- 2 1.0 0.0 11 27
+ 0.56208 0 1 ack 40 ------- 2 0.0 1.0 11 38
- 0.56208 0 1 ack 40 ------- 2 0.0 1.0 11 38
- 0.56224 1 0 tcp 1040 ------- 2 1.0 0.0 13 29
+ 0.56375 1 0 tcp 1040 ------- 2 1.0 0.0 18 39
r 0.56624 1 0 tcp 1040 ------- 2 1.0 0.0 12 28
+ 0.56624 0 1 ack 40 ------- 2 0.0 1.0 12 40
- 0.56624 0 1 ack 40 ------- 2 0.0 1.0 12 40
r 0.56624 0 1 ack 40 ------- 2 0.0 1.0 11 38
- 0.5664 1 0 tcp 1040 ------- 2 1.0 0.0 14 31
+ 0.5675 1 0 tcp 1040 ------- 2 1.0 0.0 19 41
r 0.5704 0 1 ack 40 ------- 2 0.0 1.0 12 40
r 0.5704 1 0 tcp 1040 ------- 2 1.0 0.0 13 29
+ 0.5704 0 1 ack 40 ------- 2 0.0 1.0 13 42
- 0.5704 0 1 ack 40 ------- 2 0.0 1.0 13 42
- 0.57056 1 0 tcp 1040 ------- 2 1.0 0.0 15 33
+ 0.57125 1 0 tcp 1040 ------- 2 1.0 0.0 20 43
r 0.57456 1 0 tcp 1040 ------- 2 1.0 0.0 14 31
+ 0.57456 0 1 ack 40 ------- 2 0.0 1.0 14 44
- 0.57456 0 1 ack 40 ------- 2 0.0 1.0 14 44
r 0.57456 0 1 ack 40 ------- 2 0.0 1.0 13 42
- 0.57472 1 0 tcp 1040 ------- 2 1.0 0.0 16 35
+ 0.575 1 0 tcp 1040 ------- 2 1.0 0.0 21 45
r 0.57872 0 1 ack 40 ------- 2 0.0 1.0 14 44
r 0.57872 1 0 tcp 1040 ------- 2 1.0 0.0 15 33
+ 0.57872 0 1 ack 40 ------- 2 0.0 1.0 15 46
- 0.57872 0 1 ack 40 ------- 2 0.0 1.0 15 46
+ 0.57875 1 0 tcp 1040 ------- 2 1.0 0.0 22 47
- 0.57888 1 0 tcp 1040 ------- 2 1.0 0.0 17 37
+ 0.5825 1 0 tcp 1040 ------- 2 1.0 0.0 23 48
r 0.58288 1 0 tcp 1040 ------- 2 1.0 0.0 16 35
+ 0.58288 0 1 ack 40 ------- 2 0.0 1.0 16 49
- 0.58288 0 1 ack 40 ------- 2 0.0 1.0 16 49
r 0.58288 0 1 ack 40 ------- 2 0.0 1.0 15 46
- 0.58304 1 0 tcp 1040 ------- 2 1.0 0.0 18 39
+ 0.58625 1 0 tcp 1040 ------- 2 1.0 0.0 24 50
r 0.58704 0 1 ack 40 ------- 2 0.0 1.0 16 49
r 0.58704 1 0 tcp 1040 ------- 2 1.0 0.0 17 37
+ 0.58704 0 1 ack 40 ------- 2 0.0 1.0 17 51
- 0.58704 0 1 ack 40 ------- 2 0.0 1.0 17 51
- 0.5872 1 0 tcp 1040 ------- 2 1.0 0.0 19 41
+ 0.59 1 0 tcp 1040 ------- 2 1.0 0.0 25 52
r 0.5912 1 0 tcp 1040 ------- 2 1.0 0.0 18 39
+ 0.5912 0 1 ack 40 ------- 2 0.0 1.0 18 53
- 0.5912 0 1 ack 40 ------- 2 0.0 1.0 18 53
r 0.5912 0 1 ack 40 ------- 2 0.0 1.0 17 51
- 0.59136 1 0 tcp 1040 ------- 2 1.0 0.0 20 43
+ 0.59375 1 0 tcp 1040 ------- 2 1.0 0.0 26 54
r 0.59536 0 1 ack 40 ------- 2 0.0 1.0 18 53
r 0.59536 1 0 tcp 1040 ------- 2 1.0 0.0 19 41
+ 0.59536 0 1 ack 40 ------- 2 0.0 1.0 19 55
- 0.59536 0 1 ack 40 ------- 2 0.0 1.0 19 55
- 0.59552 1 0 tcp 1040 ------- 2 1.0 0.0 21 45
+ 0.5975 1 0 tcp 1040 ------- 2 1.0 0.0 27 56
r 0.59952 1 0 tcp 1040 ------- 2 1.0 0.0 20 43
+ 0.59952 0 1 ack 40 ------- 2 0.0 1.0 20 57
- 0.59952 0 1 ack 40 ------- 2 0.0 1.0 20 57
r 0.59952 0 1 ack 40 ------- 2 0.0 1.0 19 55
- 0.59968 1 0 tcp 1040 ------- 2 1.0 0.0 22 47
+ 0.60125 1 0 tcp 1040 ------- 2 1.0 0.0 28 58
r 0.60368 0 1 ack 40 ------- 2 0.0 1.0 20 57
r 0.60368 1 0 tcp 1040 ------- 2 1.0 0.0 21 45
+ 0.60368 0 1 ack 40 ------- 2 0.0 1.0 21 59
- 0.60368 0 1 ack 40 ------- 2 0.0 1.0 21 59
- 0.60384 1 0 tcp 1040 ------- 2 1.0 0.0 23 48
+ 0.605 1 0 tcp 1040 ------- 2 1.0 0.0 29 60
r 0.60784 1 0 tcp 1040 ------- 2 1.0 0.0 22 47
+ 0.60784 0 1 ack 40 ------- 2 0.0 1.0 22 61
- 0.60784 0 1 ack 40 ------- 2 0.0 1.0 22 61
r 0.60784 0 1 ack 40 ------- 2 0.0 1.0 21 59
- 0.608 1 0 tcp 1040 ------- 2 1.0 0.0 24 50
+ 0.60875 1 0 tcp 1040 ------- 2 1.0 0.0 30 62
r 0.612 0 1 ack 40 ------- 2 0.0 1.0 22 61
r 0.612 1 0 tcp 1040 ------- 2 1.0 0.0 23 48
+ 0.612 0 1 ack 40 ------- 2 0.0 1.0 23 63
- 0.612 0 1 ack 40 ------- 2 0.0 1.0 23 63
- 0.61216 1 0 tcp 1040 ------- 2 1.0 0.0 25 52
+ 0.6125 1 0 tcp 1040 ------- 2 1.0 0.0 31 64
r 0.61616 1 0 tcp 1040 ------- 2 1.0 0.0 24 50
+ 0.61616 0 1 ack 40 ------- 2 0.0 1.0 24 65
- 0.61616 0 1 ack 40 ------- 2 0.0 1.0 24 65
r 0.61616 0 1 ack 40 ------- 2 0.0 1.0 23 63
+ 0.61625 1 0 tcp 1040 ------- 2 1.0 0.0 32 66
- 0.61632 1 0 tcp 1040 ------- 2 1.0 0.0 26 54
+ 0.62 1 0 tcp 1040 ------- 2 1.0 0.0 33 67
r 0.62032 0 1 ack 40 ------- 2 0.0 1.0 24 65
r 0.62032 1 0 tcp 1040 ------- 2 1.0 0.0 25 52
+ 0.62032 0 1 ack 40 ------- 2 0.0 1.0 25 68
- 0.62032 0 1 ack 40 ------- 2 0.0 1.0 25 68
- 0.62048 1 0 tcp 1040 ------- 2 1.0 0.0 27 56
+ 0.62375 1 0 tcp 1040 ------- 2 1.0 0.0 34 69
r 0.62448 1 0 tcp 1040 ------- 2 1.0 0.0 26 54
+ 0.62448 0 1 ack 40 ------- 2 0.0 1.0 26 70
- 0.62448 0 1 ack 40 ------- 2 0.0 1.0 26 70
r 0.62448 0 1 ack 40 ------- 2 0.0 1.0 25 68
- 0.62464 1 0 tcp 1040 ------- 2 1.0 0.0 28 58
+ 0.6275 1 0 tcp 1040 ------- 2 1.0 0.0 35 71
r 0.62864 0 1 ack 40 ------- 2 0.0 1.0 26 70
r 0.62864 1 0 tcp 1040 ------- 2 1.0 0.0 27 56
+ 0.62864 0 1 ack 40 ------- 2 0.0 1.0 27 72
- 0.62864 0 1 ack 40 ------- 2 0.0 1.0 27 72
- 0.6288 1 0 tcp 1040 ------- 2 1.0 0.0 29 60
+ 0.63125 1 0 tcp 1040 ------- 2 1.0 0.0 36 73
r 0.6328 1 0 tcp 1040 ------- 2 1.0 0.0 28 58
+ 0.6328 0 1 ack 40 ------- 2 0.0 1.0 28 74
- 0.6328 0 1 ack 40 ------- 2 0.0 1.0 28 74
r 0.6328 0 1 ack 40 ------- 2 0.0 1.0 27 72
- 0.63296 1 0 tcp 1040 ------- 2 1.0 0.0 30 62
+ 0.635 1 0 tcp 1040 ------- 2 1.0 0.0 37 75
r 0.63696 0 1 ack 40 ------- 2 0.0 1.0 28 74
r 0.63696 1 0 tcp 1040 ------- 2 1.0 0.0 29 60
+ 0.63696 0 1 ack 40 ------- 2 0.0 1.0 29 76
- 0.63696 0 1 ack 40 ------- 2 0.0 1.0 29 76
- 0.63712 1 0 tcp 1040 ------- 2 1.0 0.0 31 64
+ 0.63875 1 0 tcp 1040 ------- 2 1.0 0.0 38 77
r 0.64112 1 0 tcp 1040 ------- 2 1.0 0.0 30 62
+ 0.64112 0 1 ack 40 ------- 2 0.0 1.0 30 78
- 0.64112 0 1 ack 40 ------- 2 0.0 1.0 30 78
r 0.64112 0 1 ack 40 ------- 2 0.0 1.0 29 76
- 0.64128 1 0 tcp 1040 ------- 2 1.0 0.0 32 66
+ 0.6425 1 0 tcp 1040 ------- 2 1.0 0.0 39 79
r 0.64528 0 1 ack 40 ------- 2 0.0 1.0 30 78
r 0.64528 1 0 tcp 1040 ------- 2 1.0 0.0 31 64
+ 0.64528 0 1 ack 40 ------- 2 0.0 1.0 31 80
- 0.64528 0 1 ack 40 ------- 2 0.0 1.0 31 80
- 0.64544 1 0 tcp 1040 ------- 2 1.0 0.0 33 67
+ 0.64625 1 0 tcp 1040 ------- 2 1.0 0.0 40 81
r 0.64944 1 0 tcp 1040 ------- 2 1.0 0.0 32 66
+ 0.64944 0 1 ack 40 ------- 2 0.0 1.0 32 82
- 0.64944 0 1 ack 40 ------- 2 0.0 1.0 32 82
r 0.64944 0 1 ack 40 ------- 2 0.0 1.0 31 80
- 0.6496 1 0 tcp 1040 ------- 2 1.0 0.0 34 69
+ 0.65 1 0 tcp 1040 ------- 2 1.0 0.0 41 83
r 0.6536 0 1 ack 40 ------- 2 0.0 1.0 32 82
r 0.6536 1 0 tcp 1040 ------- 2 1.0 0.0 33 67
+ 0.6536 0 1 ack 40 ------- 2 0.0 1.0 33 84
- 0.6536 0 1 ack 40 ------- 2 0.0 1.0 33 84
+ 0.65375 1 0 tcp 1040 ------- 2 1.0 0.0 42 85
- 0.65376 1 0 tcp 1040 ------- 2 1.0 0.0 35 71
+ 0.6575 1 0 tcp 1040 ------- 2 1.0 0.0 43 86
r 0.65776 1 0 tcp 1040 ------- 2 1.0 0.0 34 69
+ 0.65776 0 1 ack 40 ------- 2 0.0 1.0 34 87
- 0.65776 0 1 ack 40 ------- 2 0.0 1.0 34 87
r 0.65776 0 1 ack 40 ------- 2 0.0 1.0 33 84
- 0.65792 1 0 tcp 1040 ------- 2 1.0 0.0 36 73
+ 0.66125 1 0 tcp 1040 ------- 2 1.0 0.0 44 88
r 0.66192 0 1 ack 40 ------- 2 0.0 1.0 34 87
r 0.66192 1 0 tcp 1040 ------- 2 1.0 0.0 35 71
+ 0.66192 0 1 ack 40 ------- 2 0.0 1.0 35 89
- 0.66192 0 1 ack 40 ------- 2 0.0 1.0 35 89
- 0.66208 1 0 tcp 1040 ------- 2 1.0 0.0 37 75
+ 0.665 1 0 tcp 1040 ------- 2 1.0 0.0 45 90
r 0.66608 1 0 tcp 1040 ------- 2 1.0 0.0 36 73
+ 0.66608 0 1 ack 40 ------- 2 0.0 1.0 36 91
- 0.66608 0 1 ack 40 ------- 2 0.0 1.0 36 91
r 0.66608 0 1 ack 40 ------- 2 0.0 1.0 35 89
- 0.66624 1 0 tcp 1040 ------- 2 1.0 0.0 38 77
+ 0.66875 1 0 tcp 1040 ------- 2 1.0 0.0 46 92
r 0.67024 0 1 ack 40 ------- 2 0.0 1.0 36 91
r 0.67024 1 0 tcp 1040 ------- 2 1.0 0.0 37 75
+ 0.67024 0 1 ack 40 ------- 2 0.0 1.0 37 93
- 0.67024 0 1 ack 40 ------- 2 0.0 1.0 37 93
- 0.6704 1 0 tcp 1040 ------- 2 1.0 0.0 39 79
+ 0.6725 1 0 tcp 1040 ------- 2 1.0 0.0 47 94
r 0.6744 1 0 tcp 1040 ------- 2 1.0 0.0 38 77
+ 0.6744 0 1 ack 40 ------- 2 0.0 1.0 38 95
- 0.6744 0 1 ack 40 ------- 2 0.0 1.0 38 95
r 0.6744 0 1 ack 40 ------- 2 0.0 1.0 37 93
- 0.67456 1 0 tcp 1040 ------- 2 1.0 0.0 40 81
+ 0.67625 1 0 tcp 1040 ------- 2 1.0 0.0 48 96
r 0.67856 0 1 ack 40 ------- 2 0.0 1.0 38 95
r 0.67856 1 0 tcp 1040 ------- 2 1.0 0.0 39 79
+ 0.67856 0 1 ack 40 ------- 2 0.0 1.0 39 97
- 0.67856 0 1 ack 40 ------- 2 0.0 1.0 39 97
- 0.67872 1 0 tcp 1040 ------- 2 1.0 0.0 41 83
+ 0.68 1 0 tcp 1040 ------- 2 1.0 0.0 49 98
r 0.68272 1 0 tcp 1040 ------- 2 1.0 0.0 40 81
+ 0.68272 0 1 ack 40 ------- 2 0.0 1.0 40 99
- 0.68272 0 1 ack 40 ------- 2 0.0 1.0 40 99
r 0.68272 0 1 ack 40 ------- 2 0.0 1.0 39 97
- 0.68288 1 0 tcp 1040 ------- 2 1.0 0.0 42 85
+ 0.68375 1 0 tcp 1040 ------- 2 1.0 0.0 50 100
r 0.68688 0 1 ack 40 ------- 2 0.0 1.0 40 99
r 0.68688 1 0 tcp 1040 ------- 2 1.0 0.0 41 83
+ 0.68688 0 1 ack 40 ------- 2 0.0 1.0 41 101
- 0.68688 0 1 ack 40 ------- 2 0.0 1.0 41 101
- 0.68704 1 0 tcp 1040 ------- 2 1.0 0.0 43 86
+ 0.6875 1 0 tcp 1040 ------- 2 1.0 0.0 51 102
r 0.69104 1 0 tcp 1040 ------- 2 1.0 0.0 42 85
+ 0.69104 0 1 ack 40 ------- 2 0.0 1.0 42 103
- 0.69104 0 1 ack 40 ------- 2 0.0 1.0 42 103
r 0.69104 0 1 ack 40 ------- 2 0.0 1.0 41 101
- 0.6912 1 0 tcp 1040 ------- 2 1.0 0.0 44 88
+ 0.69125 1 0 tcp 1040 ------- 2 1.0 0.0 52 104
+ 0.695 1 0 tcp 1040 ------- 2 1.0 0.0 53 105
r 0.6952 0 1 ack 40 ------- 2 0.0 1.0 42 103
r 0.6952 1 0 tcp 1040 ------- 2 1.0 0.0 43 86
+ 0.6952 0 1 ack 40 ------- 2 0.0 1.0 43 106
- 0.6952 0 1 ack 40 ------- 2 0.0 1.0 43 106
- 0.69536 1 0 tcp 1040 ------- 2 1.0 0.0 45 90
+ 0.69875 1 0 tcp 1040 ------- 2 1.0 0.0 54 107
r 0.69936 1 0 tcp 1040 ------- 2 1.0 0.0 44 88
+ 0.69936 0 1 ack 40 ------- 2 0.0 1.0 44 108
- 0.69936 0 1 ack 40 ------- 2 0.0 1.0 44 108
r 0.69936 0 1 ack 40 ------- 2 0.0 1.0 43 106
- 0.69952 1 0 tcp 1040 ------- 2 1.0 0.0 46 92
+ 0.7025 1 0 tcp 1040 ------- 2 1.0 0.0 55 109
r 0.70352 0 1 ack 40 ------- 2 0.0 1.0 44 108
r 0.70352 1 0 tcp 1040 ------- 2 1.0 0.0 45 90
+ 0.70352 0 1 ack 40 ------- 2 0.0 1.0 45 110
- 0.70352 0 1 ack 40 ------- 2 0.0 1.0 45 110
- 0.70368 1 0 tcp 1040 ------- 2 1.0 0.0 47 94
+ 0.70625 1 0 tcp 1040 ------- 2 1.0 0.0 56 111
r 0.70768 1 0 tcp 1040 ------- 2 1.0 0.0 46 92
+ 0.70768 0 1 ack 40 ------- 2 0.0 1.0 46 112
- 0.70768 0 1 ack 40 ------- 2 0.0 1.0 46 112
r 0.70768 0 1 ack 40 ------- 2 0.0 1.0 45 110
- 0.70784 1 0 tcp 1040 ------- 2 1.0 0.0 48 96
+ 0.71 1 0 tcp 1040 ------- 2 1.0 0.0 57 113
r 0.71184 0 1 ack 40 ------- 2 0.0 1.0 46 112
r 0.71184 1 0 tcp 1040 ------- 2 1.0 0.0 47 94
+ 0.71184 0 1 ack 40 ------- 2 0.0 1.0 47 114
- 0.71184 0 1 ack 40 ------- 2 0.0 1.0 47 114
- 0.712 1 0 tcp 1040 ------- 2 1.0 0.0 49 98
+ 0.71375 1 0 tcp 1040 ------- 2 1.0 0.0 58 115
r 0.716 1 0 tcp 1040 ------- 2 1.0 0.0 48 96
+ 0.716 0 1 ack 40 ------- 2 0.0 1.0 48 116
- 0.716 0 1 ack 40 ------- 2 0.0 1.0 48 116
r 0.716 0 1 ack 40 ------- 2 0.0 1.0 47 114
- 0.71616 1 0 tcp 1040 ------- 2 1.0 0.0 50 100
+ 0.7175 1 0 tcp 1040 ------- 2 1.0 0.0 59 117
r 0.72016 0 1 ack 40 ------- 2 0.0 1.0 48 116
r 0.72016 1 0 tcp 1040 ------- 2 1.0 0.0 49 98
+ 0.72016 0 1 ack 40 ------- 2 0.0 1.0 49 118
- 0.72016 0 1 ack 40 ------- 2 0.0 1.0 49 118
- 0.72032 1 0 tcp 1040 ------- 2 1.0 0.0 51 102
+ 0.72125 1 0 tcp 1040 ------- 2 1.0 0.0 60 119
r 0.72432 1 0 tcp 1040 ------- 2 1.0 0.0 50 100
+ 0.72432 0 1 ack 40 ------- 2 0.0 1.0 50 120
- 0.72432 0 1 ack 40 ------- 2 0.0 1.0 50 120
r 0.72432 0 1 ack 40 ------- 2 0.0 1.0 49 118
- 0.72448 1 0 tcp 1040 ------- 2 1.0 0.0 52 104
+ 0.725 1 0 tcp 1040 ------- 2 1.0 0.0 61 121
r 0.72848 0 1 ack 40 ------- 2 0.0 1.0 50 120
r 0.72848 1 0 tcp 1040 ------- 2 1.0 0.0 51 102
+ 0.72848 0 1 ack 40 ------- 2 0.0 1.0 51 122
- 0.72848 0 1 ack 40 ------- 2 0.0 1.0 51 122
- 0.72864 1 0 tcp 1040 ------- 2 1.0 0.0 53 105
+ 0.72875 1 0 tcp 1040 ------- 2 1.0 0.0 62 123
+ 0.7325 1 0 tcp 1040 ------- 2 1.0 0.0 63 124
r 0.73264 1 0 tcp 1040 ------- 2 1.0 0.0 52 104
+ 0.73264 0 1 ack 40 ------- 2 0.0 1.0 52 125
- 0.73264 0 1 ack 40 ------- 2 0.0 1.0 52 125
r 0.73264 0 1 ack 40 ------- 2 0.0 1.0 51 122
- 0.7328 1 0 tcp 1040 ------- 2 1.0 0.0 54 107
+ 0.73625 1 0 tcp 1040 ------- 2 1.0 0.0 64 126
r 0.7368 0 1 ack 40 ------- 2 0.0 1.0 52 125
r 0.7368 1 0 tcp 1040 ------- 2 1.0 0.0 53 105
+ 0.7368 0 1 ack 40 ------- 2 0.0 1.0 53 127
- 0.7368 0 1 ack 40 ------- 2 0.0 1.0 53 127
- 0.73696 1 0 tcp 1040 ------- 2 1.0 0.0 55 109
+ 0.74 1 0 tcp 1040 ------- 2 1.0 0.0 65 128
r 0.74096 1 0 tcp 1040 ------- 2 1.0 0.0 54 107
+ 0.74096 0 1 ack 40 ------- 2 0.0 1.0 54 129
- 0.74096 0 1 ack 40 ------- 2 0.0 1.0 54 129
r 0.74096 0 1 ack 40 ------- 2 0.0 1.0 53 127
- 0.74112 1 0 tcp 1040 ------- 2 1.0 0.0 56 111
+ 0.74375 1 0 tcp 1040 ------- 2 1.0 0.0 66 130
r 0.74512 0 1 ack 40 ------- 2 0.0 1.0 54 129
r 0.74512 1 0 tcp 1040 ------- 2 1.0 0.0 55 109
+ 0.74512 0 1 ack 40 ------- 2 0.0 1.0 55 131
- 0.74512 0 1 ack 40 ------- 2 0.0 1.0 55 131
- 0.74528 1 0 tcp 1040 ------- 2 1.0 0.0 57 113
+ 0.7475 1 0 tcp 1040 ------- 2 1.0 0.0 67 132
r 0.74928 1 0 tcp 1040 ------- 2 1.0 0.0 56 111
+ 0.74928 0 1 ack 40 ------- 2 0.0 1.0 56 133
- 0.74928 0 1 ack 40 ------- 2 0.0 1.0 56 133
r 0.74928 0 1 ack 40 ------- 2 0.0 1.0 55 131
- 0.74944 1 0 tcp 1040 ------- 2 1.0 0.0 58 115
+ 0.75125 1 0 tcp 1040 ------- 2 1.0 0.0 68 134
r 0.75344 0 1 ack 40 ------- 2 0.0 1.0 56 133
r 0.75344 1 0 tcp 1040 ------- 2 1.0 0.0 57 113
+ 0.75344 0 1 ack 40 ------- 2 0.0 1.0 57 135
- 0.75344 0 1 ack 40 ------- 2 0.0 1.0 57 135
- 0.7536 1 0 tcp 1040 ------- 2 1.0 0.0 59 117
+ 0.755 1 0 tcp 1040 ------- 2 1.0 0.0 69 136
r 0.7576 1 0 tcp 1040 ------- 2 1.0 0.0 58 115
+ 0.7576 0 1 ack 40 ------- 2 0.0 1.0 58 137
- 0.7576 0 1 ack 40 ------- 2 0.0 1.0 58 137
r 0.7576 0 1 ack 40 ------- 2 0.0 1.0 57 135
- 0.75776 1 0 tcp 1040 ------- 2 1.0 0.0 60 119
+ 0.75875 1 0 tcp 1040 ------- 2 1.0 0.0 70 138
r 0.76176 0 1 ack 40 ------- 2 0.0 1.0 58 137
r 0.76176 1 0 tcp 1040 ------- 2 1.0 0.0 59 117
+ 0.76176 0 1 ack 40 ------- 2 0.0 1.0 59 139
- 0.76176 0 1 ack 40 ------- 2 0.0 1.0 59 139
- 0.76192 1 0 tcp 1040 ------- 2 1.0 0.0 61 121
+ 0.7625 1 0 tcp 1040 ------- 2 1.0 0.0 71 140
r 0.76592 1 0 tcp 1040 ------- 2 1.0 0.0 60 119
+ 0.76592 0 1 ack 40 ------- 2 0.0 1.0 60 141
- 0.76592 0 1 ack 40 ------- 2 0.0 1.0 60 141
r 0.76592 0 1 ack 40 ------- 2 0.0 1.0 59 139
- 0.76608 1 0 tcp 1040 ------- 2 1.0 0.0 62 123
+ 0.76625 1 0 tcp 1040 ------- 2 1.0 0.0 72 142
+ 0.77 1 0 tcp 1040 ------- 2 1.0 0.0 73 143
r 0.77008 0 1 ack 40 ------- 2 0.0 1.0 60 141
r 0.77008 1 0 tcp 1040 ------- 2 1.0 0.0 61 121
+ 0.77008 0 1 ack 40 ------- 2 0.0 1.0 61 144
- 0.77008 0 1 ack 40 ------- 2 0.0 1.0 61 144
- 0.77024 1 0 tcp 1040 ------- 2 1.0 0.0 63 124
+ 0.77375 1 0 tcp 1040 ------- 2 1.0 0.0 74 145
r 0.77424 1 0 tcp 1040 ------- 2 1.0 0.0 62 123
+ 0.77424 0 1 ack 40 ------- 2 0.0 1.0 62 146
- 0.77424 0 1 ack 40 ------- 2 0.0 1.0 62 146
r 0.77424 0 1 ack 40 ------- 2 0.0 1.0 61 144
- 0.7744 1 0 tcp 1040 ------- 2 1.0 0.0 64 126
+ 0.7775 1 0 tcp 1040 ------- 2 1.0 0.0 75 147
r 0.7784 0 1 ack 40 ------- 2 0.0 1.0 62 146
r 0.7784 1 0 tcp 1040 ------- 2 1.0 0.0 63 124
+ 0.7784 0 1 ack 40 ------- 2 0.0 1.0 63 148
- 0.7784 0 1 ack 40 ------- 2 0.0 1.0 63 148
- 0.77856 1 0 tcp 1040 ------- 2 1.0 0.0 65 128
+ 0.78125 1 0 tcp 1040 ------- 2 1.0 0.0 76 149
r 0.78256 1 0 tcp 1040 ------- 2 1.0 0.0 64 126
+ 0.78256 0 1 ack 40 ------- 2 0.0 1.0 64 150
- 0.78256 0 1 ack 40 ------- 2 0.0 1.0 64 150
r 0.78256 0 1 ack 40 ------- 2 0.0 1.0 63 148
- 0.78272 1 0 tcp 1040 ------- 2 1.0 0.0 66 130
+ 0.785 1 0 tcp 1040 ------- 2 1.0 0.0 77 151
r 0.78672 0 1 ack 40 ------- 2 0.0 1.0 64 150
r 0.78672 1 0 tcp 1040 ------- 2 1.0 0.0 65 128
+ 0.78672 0 1 ack 40 ------- 2 0.0 1.0 65 152
- 0.78672 0 1 ack 40 ------- 2 0.0 1.0 65 152
- 0.78688 1 0 tcp 1040 ------- 2 1.0 0.0 67 132
+ 0.78875 1 0 tcp 1040 ------- 2 1.0 0.0 78 153
r 0.79088 1 0 tcp 1040 ------- 2 1.0 0.0 66 130
+ 0.79088 0 1 ack 40 ------- 2 0.0 1.0 66 154
- 0.79088 0 1 ack 40 ------- 2 0.0 1.0 66 154
r 0.79088 0 1 ack 40 ------- 2 0.0 1.0 65 152
- 0.79104 1 0 tcp 1040 ------- 2 1.0 0.0 68 134
+ 0.7925 1 0 tcp 1040 ------- 2 1.0 0.0 79 155
r 0.79504 0 1 ack 40 ------- 2 0.0 1.0 66 154
r 0.79504 1 0 tcp 1040 ------- 2 1.0 0.0 67 132
+ 0.79504 0 1 ack 40 ------- 2 0.0 1.0 67 156
- 0.79504 0 1 ack 40 ------- 2 0.0 1.0 67 156
- 0.7952 1 0 tcp 1040 ------- 2 1.0 0.0 69 136
+ 0.79625 1 0 tcp 1040 ------- 2 1.0 0.0 80 157
r 0.7992 1 0 tcp 1040 ------- 2 1.0 0.0 68 134
+ 0.7992 0 1 ack 40 ------- 2 0.0 1.0 68 158
- 0.7992 0 1 ack 40 ------- 2 0.0 1.0 68 158
r 0.7992 0 1 ack 40 ------- 2 0.0 1.0 67 156
- 0.79936 1 0 tcp 1040 ------- 2 1.0 0.0 70 138
+ 0.8 1 0 tcp 1040 ------- 2 1.0 0.0 81 159
r 0.80336 0 1 ack 40 ------- 2 0.0 1.0 68 158
r 0.80336 1 0 tcp 1040 ------- 2 1.0 0.0 69 136
+ 0.80336 0 1 ack 40 ------- 2 0.0 1.0 69 160
- 0.80336 0 1 ack 40 ------- 2 0.0 1.0 69 160
- 0.80352 1 0 tcp 1040 ------- 2 1.0 0.0 71 140
+ 0.80375 1 0 tcp 1040 ------- 2 1.0 0.0 82 161
+ 0.8075 1 0 tcp 1040 ------- 2 1.0 0.0 83 162
r 0.80752 1 0 tcp 1040 ------- 2 1.0 0.0 70 138
+ 0.80752 0 1 ack 40 ------- 2 0.0 1.0 70 163
- 0.80752 0 1 ack 40 ------- 2 0.0 1.0 70 163
r 0.80752 0 1 ack 40 ------- 2 0.0 1.0 69 160
- 0.80768 1 0 tcp 1040 ------- 2 1.0 0.0 72 142
+ 0.81125 1 0 tcp 1040 ------- 2 1.0 0.0 84 164
r 0.81168 0 1 ack 40 ------- 2 0.0 1.0 70 163
r 0.81168 1 0 tcp 1040 ------- 2 1.0 0.0 71 140
+ 0.81168 0 1 ack 40 ------- 2 0.0 1.0 71 165
- 0.81168 0 1 ack 40 ------- 2 0.0 1.0 71 165
- 0.81184 1 0 tcp 1040 ------- 2 1.0 0.0 73 143
+ 0.815 1 0 tcp 1040 ------- 2 1.0 0.0 85 166
r 0.81584 1 0 tcp 1040 ------- 2 1.0 0.0 72 142
+ 0.81584 0 1 ack 40 ------- 2 0.0 1.0 72 167
- 0.81584 0 1 ack 40 ------- 2 0.0 1.0 72 167
r 0.81584 0 1 ack 40 ------- 2 0.0 1.0 71 165
- 0.816 1 0 tcp 1040 ------- 2 1.0 0.0 74 145
+ 0.81875 1 0 tcp 1040 ------- 2 1.0 0.0 86 168
r 0.82 0 1 ack 40 ------- 2 0.0 1.0 72 167
r 0.82 1 0 tcp 1040 ------- 2 1.0 0.0 73 143
+ 0.82 0 1 ack 40 ------- 2 0.0 1.0 73 169
- 0.82 0 1 ack 40 ------- 2 0.0 1.0 73 169
- 0.82016 1 0 tcp 1040 ------- 2 1.0 0.0 75 147
+ 0.8225 1 0 tcp 1040 ------- 2 1.0 0.0 87 170
r 0.82416 1 0 tcp 1040 ------- 2 1.0 0.0 74 145
+ 0.82416 0 1 ack 40 ------- 2 0.0 1.0 74 171
- 0.82416 0 1 ack 40 ------- 2 0.0 1.0 74 171
r 0.82416 0 1 ack 40 ------- 2 0.0 1.0 73 169
- 0.82432 1 0 tcp 1040 ------- 2 1.0 0.0 76 149
+ 0.82625 1 0 tcp 1040 ------- 2 1.0 0.0 88 172
r 0.82832 0 1 ack 40 ------- 2 0.0 1.0 74 171
r 0.82832 1 0 tcp 1040 ------- 2 1.0 0.0 75 147
+ 0.82832 0 1 ack 40 ------- 2 0.0 1.0 75 173
- 0.82832 0 1 ack 40 ------- 2 0.0 1.0 75 173
- 0.82848 1 0 tcp 1040 ------- 2 1.0 0.0 77 151
+ 0.83 1 0 tcp 1040 ------- 2 1.0 0.0 89 174
r 0.83248 1 0 tcp 1040 ------- 2 1.0 0.0 76 149
+ 0.83248 0 1 ack 40 ------- 2 0.0 1.0 76 175
- 0.83248 0 1 ack 40 ------- 2 0.0 1.0 76 175
r 0.83248 0 1 ack 40 ------- 2 0.0 1.0 75 173
- 0.83264 1 0 tcp 1040 ------- 2 1.0 0.0 78 153
+ 0.83375 1 0 tcp 1040 ------- 2 1.0 0.0 90 176
r 0.83664 0 1 ack 40 ------- 2 0.0 1.0 76 175
r 0.83664 1 0 tcp 1040 ------- 2 1.0 0.0 77 151
+ 0.83664 0 1 ack 40 ------- 2 0.0 1.0 77 177
- 0.83664 0 1 ack 40 ------- 2 0.0 1.0 77 177
- 0.8368 1 0 tcp 1040 ------- 2 1.0 0.0 79 155
+ 0.8375 1 0 tcp 1040 ------- 2 1.0 0.0 91 178
r 0.8408 1 0 tcp 1040 ------- 2 1.0 0.0 78 153
+ 0.8408 0 1 ack 40 ------- 2 0.0 1.0 78 179
- 0.8408 0 1 ack 40 ------- 2 0.0 1.0 78 179
r 0.8408 0 1 ack 40 ------- 2 0.0 1.0 77 177
- 0.84096 1 0 tcp 1040 ------- 2 1.0 0.0 80 157
+ 0.84125 1 0 tcp 1040 ------- 2 1.0 0.0 92 180
r 0.84496 0 1 ack 40 ------- 2 0.0 1.0 78 179
r 0.84496 1 0 tcp 1040 ------- 2 1.0 0.0 79 155
+ 0.84496 0 1 ack 40 ------- 2 0.0 1.0 79 181
- 0.84496 0 1 ack 40 ------- 2 0.0 1.0 79 181
+ 0.845 1 0 tcp 1040 ------- 2 1.0 0.0 93 182
- 0.84512 1 0 tcp 1040 ------- 2 1.0 0.0 81 159
+ 0.84875 1 0 tcp 1040 ------- 2 1.0 0.0 94 183
r 0.84912 1 0 tcp 1040 ------- 2 1.0 0.0 80 157
+ 0.84912 0 1 ack 40 ------- 2 0.0 1.0 80 184
- 0.84912 0 1 ack 40 ------- 2 0.0 1.0 80 184
r 0.84912 0 1 ack 40 ------- 2 0.0 1.0 79 181
- 0.84928 1 0 tcp 1040 ------- 2 1.0 0.0 82 161
+ 0.8525 1 0 tcp 1040 ------- 2 1.0 0.0 95 185
r 0.85328 0 1 ack 40 ------- 2 0.0 1.0 80 184
r 0.85328 1 0 tcp 1040 ------- 2 1.0 0.0 81 159
+ 0.85328 0 1 ack 40 ------- 2 0.0 1.0 81 186
- 0.85328 0 1 ack 40 ------- 2 0.0 1.0 81 186
- 0.85344 1 0 tcp 1040 ------- 2 1.0 0.0 83 162
+ 0.85625 1 0 tcp 1040 ------- 2 1.0 0.0 96 187
r 0.85744 1 0 tcp 1040 ------- 2 1.0 0.0 82 161
+ 0.85744 0 1 ack 40 ------- 2 0.0 1.0 82 188
- 0.85744 0 1 ack 40 ------- 2 0.0 1.0 82 188
r 0.85744 0 1 ack 40 ------- 2 0.0 1.0 81 186
- 0.8576 1 0 tcp 1040 ------- 2 1.0 0.0 84 164
+ 0.86 1 0 tcp 1040 ------- 2 1.0 0.0 97 189
r 0.8616 0 1 ack 40 ------- 2 0.0 1.0 82 188
r 0.8616 1 0 tcp 1040 ------- 2 1.0 0.0 83 162
+ 0.8616 0 1 ack 40 ------- 2 0.0 1.0 83 190
- 0.8616 0 1 ack 40 ------- 2 0.0 1.0 83 190
- 0.86176 1 0 tcp 1040 ------- 2 1.0 0.0 85 166
+ 0.86375 1 0 tcp 1040 ------- 2 1.0 0.0 98 191
r 0.86576 1 0 tcp 1040 ------- 2 1.0 0.0 84 164
+ 0.86576 0 1 ack 40 ------- 2 0.0 1.0 84 192
- 0.86576 0 1 ack 40 ------- 2 0.0 1.0 84 192
r 0.86576 0 1 ack 40 ------- 2 0.0 1.0 83 190
- 0.86592 1 0 tcp 1040 ------- 2 1.0 0.0 86 168
+ 0.8675 1 0 tcp 1040 ------- 2 1.0 0.0 99 193
r 0.86992 0 1 ack 40 ------- 2 0.0 1.0 84 192
r 0.86992 1 0 tcp 1040 ------- 2 1.0 0.0 85 166
+ 0.86992 0 1 ack 40 ------- 2 0.0 1.0 85 194
- 0.86992 0 1 ack 40 ------- 2 0.0 1.0 85 194
- 0.87008 1 0 tcp 1040 ------- 2 1.0 0.0 87 170
+ 0.87125 1 0 tcp 1040 ------- 2 1.0 0.0 100 195
r 0.87408 1 0 tcp 1040 ------- 2 1.0 0.0 86 168
+ 0.87408 0 1 ack 40 ------- 2 0.0 1.0 86 196
- 0.87408 0 1 ack 40 ------- 2 0.0 1.0 86 196
r 0.87408 0 1 ack 40 ------- 2 0.0 1.0 85 194
- 0.87424 1 0 tcp 1040 ------- 2 1.0 0.0 88 172
+ 0.875 1 0 tcp 1040 ------- 2 1.0 0.0 101 197
r 0.87824 0 1 ack 40 ------- 2 0.0 1.0 86 196
r 0.87824 1 0 tcp 1040 ------- 2 1.0 0.0 87 170
+ 0.87824 0 1 ack 40 ------- 2 0.0 1.0 87 198
- 0.87824 0 1 ack 40 ------- 2 0.0 1.0 87 198
- 0.8784 1 0 tcp 1040 ------- 2 1.0 0.0 89 174
+ 0.87875 1 0 tcp 1040 ------- 2 1.0 0.0 102 199
r 0.8824 1 0 tcp 1040 ------- 2 1.0 0.0 88 172
+ 0.8824 0 1 ack 40 ------- 2 0.0 1.0 88 200
- 0.8824 0 1 ack 40 ------- 2 0.0 1.0 88 200
r 0.8824 0 1 ack 40 ------- 2 0.0 1.0 87 198
+ 0.8825 1 0 tcp 1040 ------- 2 1.0 0.0 103 201
- 0.88256 1 0 tcp 1040 ------- 2 1.0 0.0 90 176
+ 0.88625 1 0 tcp 1040 ------- 2 1.0 0.0 104 202
r 0.88656 0 1 ack 40 ------- 2 0.0 1.0 88 200
r 0.88656 1 0 tcp 1040 ------- 2 1.0 0.0 89 174
+ 0.88656 0 1 ack 40 ------- 2 0.0 1.0 89 203
- 0.88656 0 1 ack 40 ------- 2 0.0 1.0 89 203
- 0.88672 1 0 tcp 1040 ------- 2 1.0 0.0 91 178
+ 0.89 1 0 tcp 1040 ------- 2 1.0 0.0 105 204
r 0.89072 1 0 tcp 1040 ------- 2 1.0 0.0 90 176
+ 0.89072 0 1 ack 40 ------- 2 0.0 1.0 90 205
- 0.89072 0 1 ack 40 ------- 2 0.0 1.0 90 205
r 0.89072 0 1 ack 40 ------- 2 0.0 1.0 89 203
- 0.89088 1 0 tcp 1040 ------- 2 1.0 0.0 92 180
+ 0.89375 1 0 tcp 1040 ------- 2 1.0 0.0 106 206
r 0.89488 0 1 ack 40 ------- 2 0.0 1.0 90 205
r 0.89488 1 0 tcp 1040 ------- 2 1.0 0.0 91 178
+ 0.89488 0 1 ack 40 ------- 2 0.0 1.0 91 207
- 0.89488 0 1 ack 40 ------- 2 0.0 1.0 91 207
- 0.89504 1 0 tcp 1040 ------- 2 1.0 0.0 93 182
+ 0.8975 1 0 tcp 1040 ------- 2 1.0 0.0 107 208
r 0.89904 1 0 tcp 1040 ------- 2 1.0 0.0 92 180
+ 0.89904 0 1 ack 40 ------- 2 0.0 1.0 92 209
- 0.89904 0 1 ack 40 ------- 2 0.0 1.0 92 209
r 0.89904 0 1 ack 40 ------- 2 0.0 1.0 91 207
- 0.8992 1 0 tcp 1040 ------- 2 1.0 0.0 94 183
+ 0.90125 1 0 tcp 1040 ------- 2 1.0 0.0 108 210
r 0.9032 0 1 ack 40 ------- 2 0.0 1.0 92 209
r 0.9032 1 0 tcp 1040 ------- 2 1.0 0.0 93 182
+ 0.9032 0 1 ack 40 ------- 2 0.0 1.0 93 211
- 0.9032 0 1 ack 40 ------- 2 0.0 1.0 93 211
- 0.90336 1 0 tcp 1040 ------- 2 1.0 0.0 95 185
+ 0.905 1 0 tcp 1040 ------- 2 1.0 0.0 109 212
r 0.90736 1 0 tcp 1040 ------- 2 1.0 0.0 94 183
+ 0.90736 0 1 ack 40 ------- 2 0.0 1.0 94 213
- 0.90736 0 1 ack 40 ------- 2 0.0 1.0 94 213
r 0.90736 0 1 ack 40 ------- 2 0.0 1.0 93 211
- 0.90752 1 0 tcp 1040 ------- 2 1.0 0.0 96 187
+ 0.90875 1 0 tcp 1040 ------- 2 1.0 0.0 110 214
r 0.91152 0 1 ack 40 ------- 2 0.0 1.0 94 213
r 0.91152 1 0 tcp 1040 ------- 2 1.0 0.0 95 185
+ 0.91152 0 1 ack 40 ------- 2 0.0 1.0 95 215
- 0.91152 0 1 ack 40 ------- 2 0.0 1.0 95 215
- 0.91168 1 0 tcp 1040 ------- 2 1.0 0.0 97 189
+ 0.9125 1 0 tcp 1040 ------- 2 1.0 0.0 111 216
r 0.91568 1 0 tcp 1040 ------- 2 1.0 0.0 96 187
+ 0.91568 0 1 ack 40 ------- 2 0.0 1.0 96 217
- 0.91568 0 1 ack 40 ------- 2 0.0 1.0 96 217
r 0.91568 0 1 ack 40 ------- 2 0.0 1.0 95 215
- 0.91584 1 0 tcp 1040 ------- 2 1.0 0.0 98 191
+ 0.91625 1 0 tcp 1040 ------- 2 1.0 0.0 112 218
r 0.91984 0 1 ack 40 ------- 2 0.0 1.0 96 217
r 0.91984 1 0 tcp 1040 ------- 2 1.0 0.0 97 189
+ 0.91984 0 1 ack 40 ------- 2 0.0 1.0 97 219
- 0.91984 0 1 ack 40 ------- 2 0.0 1.0 97 219
+ 0.92 1 0 tcp 1040 ------- 2 1.0 0.0 113 220
- 0.92 1 0 tcp 1040 ------- 2 1.0 0.0 99 193
+ 0.92375 1 0 tcp 1040 ------- 2 1.0 0.0 114 221
r 0.924 1 0 tcp 1040 ------- 2 1.0 0.0 98 191
+ 0.924 0 1 ack 40 ------- 2 0.0 1.0 98 222
- 0.924 0 1 ack 40 ------- 2 0.0 1.0 98 222
r 0.924 0 1 ack 40 ------- 2 0.0 1.0 97 219
- 0.92416 1 0 tcp 1040 ------- 2 1.0 0.0 100 195
+ 0.9275 1 0 tcp 1040 ------- 2 1.0 0.0 115 223
r 0.92816 0 1 ack 40 ------- 2 0.0 1.0 98 222
r 0.92816 1 0 tcp 1040 ------- 2 1.0 0.0 99 193
+ 0.92816 0 1 ack 40 ------- 2 0.0 1.0 99 224
- 0.92816 0 1 ack 40 ------- 2 0.0 1.0 99 224
- 0.92832 1 0 tcp 1040 ------- 2 1.0 0.0 101 197
+ 0.93125 1 0 tcp 1040 ------- 2 1.0 0.0 116 225
r 0.93232 1 0 tcp 1040 ------- 2 1.0 0.0 100 195
+ 0.93232 0 1 ack 40 ------- 2 0.0 1.0 100 226