+ 1 1 4 cbr 1000 ------- 0 1.0 4.0 0 0
- 1 1 4 cbr 1000 ------- 0 1.0 4.0 0 0
+ 1.005 1 4 cbr 1000 ------- 0 1.0 4.0 1 1
- 1.008 1 4 cbr 1000 ------- 0 1.0 4.0 1 1
+ 1.01 1 4 cbr 1000 ------- 0 1.0 4.0 2 2
+ 1.015 1 4 cbr 1000 ------- 0 1.0 4.0 3 3
- 1.016 1 4 cbr 1000 ------- 0 1.0 4.0 2 2
r 1.018 1 4 cbr 1000 ------- 0 1.0 4.0 0 0
+ 1.02 1 4 cbr 1000 ------- 0 1.0 4.0 4 4
- 1.024 1 4 cbr 1000 ------- 0 1.0 4.0 3 3
+ 1.025 1 4 cbr 1000 ------- 0 1.0 4.0 5 5
r 1.026 1 4 cbr 1000 ------- 0 1.0 4.0 1 1
+ 1.03 1 4 cbr 1000 ------- 0 1.0 4.0 6 6
- 1.032 1 4 cbr 1000 ------- 0 1.0 4.0 4 4
r 1.034 1 4 cbr 1000 ------- 0 1.0 4.0 2 2
+ 1.035 1 4 cbr 1000 ------- 0 1.0 4.0 7 7
+ 1.04 1 4 cbr 1000 ------- 0 1.0 4.0 8 8
- 1.04 1 4 cbr 1000 ------- 0 1.0 4.0 5 5
r 1.042 1 4 cbr 1000 ------- 0 1.0 4.0 3 3
+ 1.045 1 4 cbr 1000 ------- 0 1.0 4.0 9 9
- 1.048 1 4 cbr 1000 ------- 0 1.0 4.0 6 6
+ 1.05 1 4 cbr 1000 ------- 0 1.0 4.0 10 10
r 1.05 1 4 cbr 1000 ------- 0 1.0 4.0 4 4
+ 1.055 1 4 cbr 1000 ------- 0 1.0 4.0 11 11
- 1.056 1 4 cbr 1000 ------- 0 1.0 4.0 7 7
r 1.058 1 4 cbr 1000 ------- 0 1.0 4.0 5 5
+ 1.06 1 4 cbr 1000 ------- 0 1.0 4.0 12 12
- 1.064 1 4 cbr 1000 ------- 0 1.0 4.0 8 8
+ 1.065 1 4 cbr 1000 ------- 0 1.0 4.0 13 13
r 1.066 1 4 cbr 1000 ------- 0 1.0 4.0 6 6
+ 1.07 1 4 cbr 1000 ------- 0 1.0 4.0 14 14
- 1.072 1 4 cbr 1000 ------- 0 1.0 4.0 9 9
r 1.074 1 4 cbr 1000 ------- 0 1.0 4.0 7 7
+ 1.075 1 4 cbr 1000 ------- 0 1.0 4.0 15 15
+ 1.08 1 4 cbr 1000 ------- 0 1.0 4.0 16 16
- 1.08 1 4 cbr 1000 ------- 0 1.0 4.0 10 10
r 1.082 1 4 cbr 1000 ------- 0 1.0 4.0 8 8
+ 1.085 1 4 cbr 1000 ------- 0 1.0 4.0 17 17
- 1.088 1 4 cbr 1000 ------- 0 1.0 4.0 11 11
+ 1.09 1 4 cbr 1000 ------- 0 1.0 4.0 18 18
r 1.09 1 4 cbr 1000 ------- 0 1.0 4.0 9 9
+ 1.095 1 4 cbr 1000 ------- 0 1.0 4.0 19 19
- 1.096 1 4 cbr 1000 ------- 0 1.0 4.0 12 12
r 1.098 1 4 cbr 1000 ------- 0 1.0 4.0 10 10
+ 1.1 1 4 cbr 1000 ------- 0 1.0 4.0 20 20
- 1.104 1 4 cbr 1000 ------- 0 1.0 4.0 13 13
+ 1.105 1 4 cbr 1000 ------- 0 1.0 4.0 21 21
r 1.106 1 4 cbr 1000 ------- 0 1.0 4.0 11 11
+ 1.11 1 4 cbr 1000 ------- 0 1.0 4.0 22 22
- 1.112 1 4 cbr 1000 ------- 0 1.0 4.0 14 14
r 1.114 1 4 cbr 1000 ------- 0 1.0 4.0 12 12
+ 1.115 1 4 cbr 1000 ------- 0 1.0 4.0 23 23
+ 1.12 1 4 cbr 1000 ------- 0 1.0 4.0 24 24
- 1.12 1 4 cbr 1000 ------- 0 1.0 4.0 15 15
r 1.122 1 4 cbr 1000 ------- 0 1.0 4.0 13 13
+ 1.125 1 4 cbr 1000 ------- 0 1.0 4.0 25 25
- 1.128 1 4 cbr 1000 ------- 0 1.0 4.0 16 16
+ 1.13 1 4 cbr 1000 ------- 0 1.0 4.0 26 26
r 1.13 1 4 cbr 1000 ------- 0 1.0 4.0 14 14
+ 1.135 1 4 cbr 1000 ------- 0 1.0 4.0 27 27
- 1.136 1 4 cbr 1000 ------- 0 1.0 4.0 17 17
r 1.138 1 4 cbr 1000 ------- 0 1.0 4.0 15 15
+ 1.14 1 4 cbr 1000 ------- 0 1.0 4.0 28 28
- 1.144 1 4 cbr 1000 ------- 0 1.0 4.0 18 18
+ 1.145 1 4 cbr 1000 ------- 0 1.0 4.0 29 29
r 1.146 1 4 cbr 1000 ------- 0 1.0 4.0 16 16
+ 1.15 1 4 cbr 1000 ------- 0 1.0 4.0 30 30
- 1.152 1 4 cbr 1000 ------- 0 1.0 4.0 19 19
r 1.154 1 4 cbr 1000 ------- 0 1.0 4.0 17 17
+ 1.155 1 4 cbr 1000 ------- 0 1.0 4.0 31 31
+ 1.16 1 4 cbr 1000 ------- 0 1.0 4.0 32 32
- 1.16 1 4 cbr 1000 ------- 0 1.0 4.0 20 20
r 1.162 1 4 cbr 1000 ------- 0 1.0 4.0 18 18
+ 1.165 1 4 cbr 1000 ------- 0 1.0 4.0 33 33
- 1.168 1 4 cbr 1000 ------- 0 1.0 4.0 21 21
+ 1.17 1 4 cbr 1000 ------- 0 1.0 4.0 34 34
r 1.17 1 4 cbr 1000 ------- 0 1.0 4.0 19 19
+ 1.175 1 4 cbr 1000 ------- 0 1.0 4.0 35 35
- 1.176 1 4 cbr 1000 ------- 0 1.0 4.0 22 22
r 1.178 1 4 cbr 1000 ------- 0 1.0 4.0 20 20
+ 1.18 1 4 cbr 1000 ------- 0 1.0 4.0 36 36
- 1.184 1 4 cbr 1000 ------- 0 1.0 4.0 23 23
+ 1.185 1 4 cbr 1000 ------- 0 1.0 4.0 37 37
r 1.186 1 4 cbr 1000 ------- 0 1.0 4.0 21 21
+ 1.19 1 4 cbr 1000 ------- 0 1.0 4.0 38 38
- 1.192 1 4 cbr 1000 ------- 0 1.0 4.0 24 24
r 1.194 1 4 cbr 1000 ------- 0 1.0 4.0 22 22
+ 1.195 1 4 cbr 1000 ------- 0 1.0 4.0 39 39
+ 1.2 1 4 cbr 1000 ------- 0 1.0 4.0 40 40
- 1.2 1 4 cbr 1000 ------- 0 1.0 4.0 25 25
r 1.202 1 4 cbr 1000 ------- 0 1.0 4.0 23 23
+ 1.205 1 4 cbr 1000 ------- 0 1.0 4.0 41 41
- 1.208 1 4 cbr 1000 ------- 0 1.0 4.0 26 26
+ 1.21 1 4 cbr 1000 ------- 0 1.0 4.0 42 42
r 1.21 1 4 cbr 1000 ------- 0 1.0 4.0 24 24
+ 1.215 1 4 cbr 1000 ------- 0 1.0 4.0 43 43
- 1.216 1 4 cbr 1000 ------- 0 1.0 4.0 27 27
r 1.218 1 4 cbr 1000 ------- 0 1.0 4.0 25 25
+ 1.22 1 4 cbr 1000 ------- 0 1.0 4.0 44 44
- 1.224 1 4 cbr 1000 ------- 0 1.0 4.0 28 28
+ 1.225 1 4 cbr 1000 ------- 0 1.0 4.0 45 45
r 1.226 1 4 cbr 1000 ------- 0 1.0 4.0 26 26
+ 1.23 1 4 cbr 1000 ------- 0 1.0 4.0 46 46
- 1.232 1 4 cbr 1000 ------- 0 1.0 4.0 29 29
r 1.234 1 4 cbr 1000 ------- 0 1.0 4.0 27 27
+ 1.235 1 4 cbr 1000 ------- 0 1.0 4.0 47 47
+ 1.24 1 4 cbr 1000 ------- 0 1.0 4.0 48 48
- 1.24 1 4 cbr 1000 ------- 0 1.0 4.0 30 30
r 1.242 1 4 cbr 1000 ------- 0 1.0 4.0 28 28
+ 1.245 1 4 cbr 1000 ------- 0 1.0 4.0 49 49
- 1.248 1 4 cbr 1000 ------- 0 1.0 4.0 31 31
+ 1.25 1 4 cbr 1000 ------- 0 1.0 4.0 50 50
r 1.25 1 4 cbr 1000 ------- 0 1.0 4.0 29 29
+ 1.255 1 4 cbr 1000 ------- 0 1.0 4.0 51 51
- 1.256 1 4 cbr 1000 ------- 0 1.0 4.0 32 32
r 1.258 1 4 cbr 1000 ------- 0 1.0 4.0 30 30
+ 1.26 1 4 cbr 1000 ------- 0 1.0 4.0 52 52
- 1.264 1 4 cbr 1000 ------- 0 1.0 4.0 33 33
+ 1.265 1 4 cbr 1000 ------- 0 1.0 4.0 53 53
r 1.266 1 4 cbr 1000 ------- 0 1.0 4.0 31 31
+ 1.27 1 4 cbr 1000 ------- 0 1.0 4.0 54 54
- 1.272 1 4 cbr 1000 ------- 0 1.0 4.0 34 34
r 1.274 1 4 cbr 1000 ------- 0 1.0 4.0 32 32
+ 1.275 1 4 cbr 1000 ------- 0 1.0 4.0 55 55
+ 1.28 1 4 cbr 1000 ------- 0 1.0 4.0 56 56
- 1.28 1 4 cbr 1000 ------- 0 1.0 4.0 35 35
r 1.282 1 4 cbr 1000 ------- 0 1.0 4.0 33 33
+ 1.285 1 4 cbr 1000 ------- 0 1.0 4.0 57 57
- 1.288 1 4 cbr 1000 ------- 0 1.0 4.0 36 36
+ 1.29 1 4 cbr 1000 ------- 0 1.0 4.0 58 58
r 1.29 1 4 cbr 1000 ------- 0 1.0 4.0 34 34
+ 1.295 1 4 cbr 1000 ------- 0 1.0 4.0 59 59
- 1.296 1 4 cbr 1000 ------- 0 1.0 4.0 37 37
r 1.298 1 4 cbr 1000 ------- 0 1.0 4.0 35 35
+ 1.3 1 4 cbr 1000 ------- 0 1.0 4.0 60 60
- 1.304 1 4 cbr 1000 ------- 0 1.0 4.0 38 38
+ 1.305 1 4 cbr 1000 ------- 0 1.0 4.0 61 61
r 1.306 1 4 cbr 1000 ------- 0 1.0 4.0 36 36
+ 1.31 1 4 cbr 1000 ------- 0 1.0 4.0 62 62
- 1.312 1 4 cbr 1000 ------- 0 1.0 4.0 39 39
r 1.314 1 4 cbr 1000 ------- 0 1.0 4.0 37 37
+ 1.315 1 4 cbr 1000 ------- 0 1.0 4.0 63 63
+ 1.32 1 4 cbr 1000 ------- 0 1.0 4.0 64 64
- 1.32 1 4 cbr 1000 ------- 0 1.0 4.0 40 40
r 1.322 1 4 cbr 1000 ------- 0 1.0 4.0 38 38
+ 1.325 1 4 cbr 1000 ------- 0 1.0 4.0 65 65
- 1.328 1 4 cbr 1000 ------- 0 1.0 4.0 41 41
+ 1.33 1 4 cbr 1000 ------- 0 1.0 4.0 66 66
r 1.33 1 4 cbr 1000 ------- 0 1.0 4.0 39 39
+ 1.335 1 4 cbr 1000 ------- 0 1.0 4.0 67 67
- 1.336 1 4 cbr 1000 ------- 0 1.0 4.0 42 42
r 1.338 1 4 cbr 1000 ------- 0 1.0 4.0 40 40
+ 1.34 1 4 cbr 1000 ------- 0 1.0 4.0 68 68
- 1.344 1 4 cbr 1000 ------- 0 1.0 4.0 43 43
+ 1.345 1 4 cbr 1000 ------- 0 1.0 4.0 69 69
r 1.346 1 4 cbr 1000 ------- 0 1.0 4.0 41 41
+ 1.35 1 4 cbr 1000 ------- 0 1.0 4.0 70 70
- 1.352 1 4 cbr 1000 ------- 0 1.0 4.0 44 44
r 1.354 1 4 cbr 1000 ------- 0 1.0 4.0 42 42
+ 1.355 1 4 cbr 1000 ------- 0 1.0 4.0 71 71
+ 1.36 1 4 cbr 1000 ------- 0 1.0 4.0 72 72
- 1.36 1 4 cbr 1000 ------- 0 1.0 4.0 45 45
r 1.362 1 4 cbr 1000 ------- 0 1.0 4.0 43 43
+ 1.365 1 4 cbr 1000 ------- 0 1.0 4.0 73 73
- 1.368 1 4 cbr 1000 ------- 0 1.0 4.0 46 46
+ 1.37 1 4 cbr 1000 ------- 0 1.0 4.0 74 74
r 1.37 1 4 cbr 1000 ------- 0 1.0 4.0 44 44
+ 1.375 1 4 cbr 1000 ------- 0 1.0 4.0 75 75
- 1.376 1 4 cbr 1000 ------- 0 1.0 4.0 47 47
r 1.378 1 4 cbr 1000 ------- 0 1.0 4.0 45 45
+ 1.38 1 4 cbr 1000 ------- 0 1.0 4.0 76 76
- 1.384 1 4 cbr 1000 ------- 0 1.0 4.0 48 48
+ 1.385 1 4 cbr 1000 ------- 0 1.0 4.0 77 77
r 1.386 1 4 cbr 1000 ------- 0 1.0 4.0 46 46
+ 1.39 1 4 cbr 1000 ------- 0 1.0 4.0 78 78
- 1.392 1 4 cbr 1000 ------- 0 1.0 4.0 49 49
r 1.394 1 4 cbr 1000 ------- 0 1.0 4.0 47 47
+ 1.395 1 4 cbr 1000 ------- 0 1.0 4.0 79 79
+ 1.4 1 4 cbr 1000 ------- 0 1.0 4.0 80 80
- 1.4 1 4 cbr 1000 ------- 0 1.0 4.0 50 50
r 1.402 1 4 cbr 1000 ------- 0 1.0 4.0 48 48
+ 1.405 1 4 cbr 1000 ------- 0 1.0 4.0 81 81
- 1.408 1 4 cbr 1000 ------- 0 1.0 4.0 51 51
+ 1.41 1 4 cbr 1000 ------- 0 1.0 4.0 82 82
r 1.41 1 4 cbr 1000 ------- 0 1.0 4.0 49 49
+ 1.415 1 4 cbr 1000 ------- 0 1.0 4.0 83 83
- 1.416 1 4 cbr 1000 ------- 0 1.0 4.0 52 52
r 1.418 1 4 cbr 1000 ------- 0 1.0 4.0 50 50
+ 1.42 1 4 cbr 1000 ------- 0 1.0 4.0 84 84
- 1.424 1 4 cbr 1000 ------- 0 1.0 4.0 53 53
+ 1.425 1 4 cbr 1000 ------- 0 1.0 4.0 85 85
r 1.426 1 4 cbr 1000 ------- 0 1.0 4.0 51 51
+ 1.43 1 4 cbr 1000 ------- 0 1.0 4.0 86 86
- 1.432 1 4 cbr 1000 ------- 0 1.0 4.0 54 54
r 1.434 1 4 cbr 1000 ------- 0 1.0 4.0 52 52
+ 1.435 1 4 cbr 1000 ------- 0 1.0 4.0 87 87
+ 1.44 1 4 cbr 1000 ------- 0 1.0 4.0 88 88
- 1.44 1 4 cbr 1000 ------- 0 1.0 4.0 55 55
r 1.442 1 4 cbr 1000 ------- 0 1.0 4.0 53 53
+ 1.445 1 4 cbr 1000 ------- 0 1.0 4.0 89 89
- 1.448 1 4 cbr 1000 ------- 0 1.0 4.0 56 56
+ 1.45 1 4 cbr 1000 ------- 0 1.0 4.0 90 90
r 1.45 1 4 cbr 1000 ------- 0 1.0 4.0 54 54
+ 1.455 1 4 cbr 1000 ------- 0 1.0 4.0 91 91
- 1.456 1 4 cbr 1000 ------- 0 1.0 4.0 57 57
r 1.458 1 4 cbr 1000 ------- 0 1.0 4.0 55 55
+ 1.46 1 4 cbr 1000 ------- 0 1.0 4.0 92 92
- 1.464 1 4 cbr 1000 ------- 0 1.0 4.0 58 58
+ 1.465 1 4 cbr 1000 ------- 0 1.0 4.0 93 93
r 1.466 1 4 cbr 1000 ------- 0 1.0 4.0 56 56
+ 1.47 1 4 cbr 1000 ------- 0 1.0 4.0 94 94
- 1.472 1 4 cbr 1000 ------- 0 1.0 4.0 59 59
r 1.474 1 4 cbr 1000 ------- 0 1.0 4.0 57 57
+ 1.475 1 4 cbr 1000 ------- 0 1.0 4.0 95 95
+ 1.48 1 4 cbr 1000 ------- 0 1.0 4.0 96 96
- 1.48 1 4 cbr 1000 ------- 0 1.0 4.0 60 60
r 1.482 1 4 cbr 1000 ------- 0 1.0 4.0 58 58
+ 1.485 1 4 cbr 1000 ------- 0 1.0 4.0 97 97
- 1.488 1 4 cbr 1000 ------- 0 1.0 4.0 61 61
+ 1.49 1 4 cbr 1000 ------- 0 1.0 4.0 98 98
r 1.49 1 4 cbr 1000 ------- 0 1.0 4.0 59 59
+ 1.495 1 4 cbr 1000 ------- 0 1.0 4.0 99 99
- 1.496 1 4 cbr 1000 ------- 0 1.0 4.0 62 62
r 1.498 1 4 cbr 1000 ------- 0 1.0 4.0 60 60
+ 1.5 1 4 cbr 1000 ------- 0 1.0 4.0 100 100
- 1.504 1 4 cbr 1000 ------- 0 1.0 4.0 63 63
+ 1.505 1 4 cbr 1000 ------- 0 1.0 4.0 101 101
r 1.506 1 4 cbr 1000 ------- 0 1.0 4.0 61 61
+ 1.51 1 4 cbr 1000 ------- 0 1.0 4.0 102 102
- 1.512 1 4 cbr 1000 ------- 0 1.0 4.0 64 64
r 1.514 1 4 cbr 1000 ------- 0 1.0 4.0 62 62
+ 1.515 1 4 cbr 1000 ------- 0 1.0 4.0 103 103
+ 1.52 1 4 cbr 1000 ------- 0 1.0 4.0 104 104
- 1.52 1 4 cbr 1000 ------- 0 1.0 4.0 65 65
r 1.522 1 4 cbr 1000 ------- 0 1.0 4.0 63 63
+ 1.525 1 4 cbr 1000 ------- 0 1.0 4.0 105 105
- 1.528 1 4 cbr 1000 ------- 0 1.0 4.0 66 66
+ 1.53 1 4 cbr 1000 ------- 0 1.0 4.0 106 106
r 1.53 1 4 cbr 1000 ------- 0 1.0 4.0 64 64
+ 1.535 1 4 cbr 1000 ------- 0 1.0 4.0 107 107
- 1.536 1 4 cbr 1000 ------- 0 1.0 4.0 67 67
r 1.538 1 4 cbr 1000 ------- 0 1.0 4.0 65 65
+ 1.54 1 4 cbr 1000 ------- 0 1.0 4.0 108 108
- 1.544 1 4 cbr 1000 ------- 0 1.0 4.0 68 68
+ 1.545 1 4 cbr 1000 ------- 0 1.0 4.0 109 109
r 1.546 1 4 cbr 1000 ------- 0 1.0 4.0 66 66
+ 1.55 1 4 cbr 1000 ------- 0 1.0 4.0 110 110
- 1.552 1 4 cbr 1000 ------- 0 1.0 4.0 69 69
r 1.554 1 4 cbr 1000 ------- 0 1.0 4.0 67 67
+ 1.555 1 4 cbr 1000 ------- 0 1.0 4.0 111 111
+ 1.56 1 4 cbr 1000 ------- 0 1.0 4.0 112 112
- 1.56 1 4 cbr 1000 ------- 0 1.0 4.0 70 70
r 1.562 1 4 cbr 1000 ------- 0 1.0 4.0 68 68
+ 1.565 1 4 cbr 1000 ------- 0 1.0 4.0 113 113
- 1.568 1 4 cbr 1000 ------- 0 1.0 4.0 71 71
+ 1.57 1 4 cbr 1000 ------- 0 1.0 4.0 114 114
r 1.57 1 4 cbr 1000 ------- 0 1.0 4.0 69 69
+ 1.575 1 4 cbr 1000 ------- 0 1.0 4.0 115 115
- 1.576 1 4 cbr 1000 ------- 0 1.0 4.0 72 72
r 1.578 1 4 cbr 1000 ------- 0 1.0 4.0 70 70
+ 1.58 1 4 cbr 1000 ------- 0 1.0 4.0 116 116
- 1.584 1 4 cbr 1000 ------- 0 1.0 4.0 73 73
+ 1.585 1 4 cbr 1000 ------- 0 1.0 4.0 117 117
r 1.586 1 4 cbr 1000 ------- 0 1.0 4.0 71 71
+ 1.59 1 4 cbr 1000 ------- 0 1.0 4.0 118 118
- 1.592 1 4 cbr 1000 ------- 0 1.0 4.0 74 74
r 1.594 1 4 cbr 1000 ------- 0 1.0 4.0 72 72
+ 1.595 1 4 cbr 1000 ------- 0 1.0 4.0 119 119
+ 1.6 1 4 cbr 1000 ------- 0 1.0 4.0 120 120
- 1.6 1 4 cbr 1000 ------- 0 1.0 4.0 75 75
r 1.602 1 4 cbr 1000 ------- 0 1.0 4.0 73 73
+ 1.605 1 4 cbr 1000 ------- 0 1.0 4.0 121 121
- 1.608 1 4 cbr 1000 ------- 0 1.0 4.0 76 76
+ 1.61 1 4 cbr 1000 ------- 0 1.0 4.0 122 122
r 1.61 1 4 cbr 1000 ------- 0 1.0 4.0 74 74
+ 1.615 1 4 cbr 1000 ------- 0 1.0 4.0 123 123
- 1.616 1 4 cbr 1000 ------- 0 1.0 4.0 77 77
r 1.618 1 4 cbr 1000 ------- 0 1.0 4.0 75 75
+ 1.62 1 4 cbr 1000 ------- 0 1.0 4.0 124 124
- 1.624 1 4 cbr 1000 ------- 0 1.0 4.0 78 78
+ 1.625 1 4 cbr 1000 ------- 0 1.0 4.0 125 125
r 1.626 1 4 cbr 1000 ------- 0 1.0 4.0 76 76
+ 1.63 1 4 cbr 1000 ------- 0 1.0 4.0 126 126
- 1.632 1 4 cbr 1000 ------- 0 1.0 4.0 79 79
r 1.634 1 4 cbr 1000 ------- 0 1.0 4.0 77 77
+ 1.635 1 4 cbr 1000 ------- 0 1.0 4.0 127 127
+ 1.64 1 4 cbr 1000 ------- 0 1.0 4.0 128 128
- 1.64 1 4 cbr 1000 ------- 0 1.0 4.0 80 80
r 1.642 1 4 cbr 1000 ------- 0 1.0 4.0 78 78
+ 1.645 1 4 cbr 1000 ------- 0 1.0 4.0 129 129
- 1.648 1 4 cbr 1000 ------- 0 1.0 4.0 81 81
+ 1.65 1 4 cbr 1000 ------- 0 1.0 4.0 130 130
r 1.65 1 4 cbr 1000 ------- 0 1.0 4.0 79 79
+ 1.655 1 4 cbr 1000 ------- 0 1.0 4.0 131 131
d 1.655 1 4 cbr 1000 ------- 0 1.0 4.0 131 131
- 1.656 1 4 cbr 1000 ------- 0 1.0 4.0 82 82
r 1.658 1 4 cbr 1000 ------- 0 1.0 4.0 80 80
+ 1.66 1 4 cbr 1000 ------- 0 1.0 4.0 132 132
- 1.664 1 4 cbr 1000 ------- 0 1.0 4.0 83 83
+ 1.665 1 4 cbr 1000 ------- 0 1.0 4.0 133 133
r 1.666 1 4 cbr 1000 ------- 0 1.0 4.0 81 81
+ 1.67 1 4 cbr 1000 ------- 0 1.0 4.0 134 134
d 1.67 1 4 cbr 1000 ------- 0 1.0 4.0 134 134
- 1.672 1 4 cbr 1000 ------- 0 1.0 4.0 84 84
r 1.674 1 4 cbr 1000 ------- 0 1.0 4.0 82 82
+ 1.675 1 4 cbr 1000 ------- 0 1.0 4.0 135 135
+ 1.68 1 4 cbr 1000 ------- 0 1.0 4.0 136 136
d 1.68 1 4 cbr 1000 ------- 0 1.0 4.0 136 136
- 1.68 1 4 cbr 1000 ------- 0 1.0 4.0 85 85
r 1.682 1 4 cbr 1000 ------- 0 1.0 4.0 83 83
+ 1.685 1 4 cbr 1000 ------- 0 1.0 4.0 137 137
- 1.688 1 4 cbr 1000 ------- 0 1.0 4.0 86 86
+ 1.69 1 4 cbr 1000 ------- 0 1.0 4.0 138 138
r 1.69 1 4 cbr 1000 ------- 0 1.0 4.0 84 84
+ 1.695 1 4 cbr 1000 ------- 0 1.0 4.0 139 139
d 1.695 1 4 cbr 1000 ------- 0 1.0 4.0 139 139
- 1.696 1 4 cbr 1000 ------- 0 1.0 4.0 87 87
r 1.698 1 4 cbr 1000 ------- 0 1.0 4.0 85 85
+ 1.7 1 4 cbr 1000 ------- 0 1.0 4.0 140 140
- 1.704 1 4 cbr 1000 ------- 0 1.0 4.0 88 88
+ 1.705 1 4 cbr 1000 ------- 0 1.0 4.0 141 141
r 1.706 1 4 cbr 1000 ------- 0 1.0 4.0 86 86
+ 1.71 1 4 cbr 1000 ------- 0 1.0 4.0 142 142
d 1.71 1 4 cbr 1000 ------- 0 1.0 4.0 142 142
- 1.712 1 4 cbr 1000 ------- 0 1.0 4.0 89 89
r 1.714 1 4 cbr 1000 ------- 0 1.0 4.0 87 87
+ 1.715 1 4 cbr 1000 ------- 0 1.0 4.0 143 143
+ 1.72 1 4 cbr 1000 ------- 0 1.0 4.0 144 144
d 1.72 1 4 cbr 1000 ------- 0 1.0 4.0 144 144
- 1.72 1 4 cbr 1000 ------- 0 1.0 4.0 90 90
r 1.722 1 4 cbr 1000 ------- 0 1.0 4.0 88 88
+ 1.725 1 4 cbr 1000 ------- 0 1.0 4.0 145 145
- 1.728 1 4 cbr 1000 ------- 0 1.0 4.0 91 91
+ 1.73 1 4 cbr 1000 ------- 0 1.0 4.0 146 146
r 1.73 1 4 cbr 1000 ------- 0 1.0 4.0 89 89
+ 1.735 1 4 cbr 1000 ------- 0 1.0 4.0 147 147
d 1.735 1 4 cbr 1000 ------- 0 1.0 4.0 147 147
- 1.736 1 4 cbr 1000 ------- 0 1.0 4.0 92 92
r 1.738 1 4 cbr 1000 ------- 0 1.0 4.0 90 90
+ 1.74 1 4 cbr 1000 ------- 0 1.0 4.0 148 148
- 1.744 1 4 cbr 1000 ------- 0 1.0 4.0 93 93
+ 1.745 1 4 cbr 1000 ------- 0 1.0 4.0 149 149
r 1.746 1 4 cbr 1000 ------- 0 1.0 4.0 91 91
+ 1.75 1 4 cbr 1000 ------- 0 1.0 4.0 150 150
d 1.75 1 4 cbr 1000 ------- 0 1.0 4.0 150 150
- 1.752 1 4 cbr 1000 ------- 0 1.0 4.0 94 94
r 1.754 1 4 cbr 1000 ------- 0 1.0 4.0 92 92
+ 1.755 1 4 cbr 1000 ------- 0 1.0 4.0 151 151
+ 1.76 1 4 cbr 1000 ------- 0 1.0 4.0 152 152
d 1.76 1 4 cbr 1000 ------- 0 1.0 4.0 152 152
- 1.76 1 4 cbr 1000 ------- 0 1.0 4.0 95 95
r 1.762 1 4 cbr 1000 ------- 0 1.0 4.0 93 93
+ 1.765 1 4 cbr 1000 ------- 0 1.0 4.0 153 153
- 1.768 1 4 cbr 1000 ------- 0 1.0 4.0 96 96
+ 1.77 1 4 cbr 1000 ------- 0 1.0 4.0 154 154
r 1.77 1 4 cbr 1000 ------- 0 1.0 4.0 94 94
+ 1.775 1 4 cbr 1000 ------- 0 1.0 4.0 155 155
d 1.775 1 4 cbr 1000 ------- 0 1.0 4.0 155 155
- 1.776 1 4 cbr 1000 ------- 0 1.0 4.0 97 97
r 1.778 1 4 cbr 1000 ------- 0 1.0 4.0 95 95
+ 1.78 1 4 cbr 1000 ------- 0 1.0 4.0 156 156
- 1.784 1 4 cbr 1000 ------- 0 1.0 4.0 98 98
+ 1.785 1 4 cbr 1000 ------- 0 1.0 4.0 157 157
r 1.786 1 4 cbr 1000 ------- 0 1.0 4.0 96 96
+ 1.79 1 4 cbr 1000 ------- 0 1.0 4.0 158 158
d 1.79 1 4 cbr 1000 ------- 0 1.0 4.0 158 158
- 1.792 1 4 cbr 1000 ------- 0 1.0 4.0 99 99
r 1.794 1 4 cbr 1000 ------- 0 1.0 4.0 97 97
+ 1.795 1 4 cbr 1000 ------- 0 1.0 4.0 159 159
+ 1.8 1 4 cbr 1000 ------- 0 1.0 4.0 160 160
d 1.8 1 4 cbr 1000 ------- 0 1.0 4.0 160 160
- 1.8 1 4 cbr 1000 ------- 0 1.0 4.0 100 100
r 1.802 1 4 cbr 1000 ------- 0 1.0 4.0 98 98
+ 1.805 1 4 cbr 1000 ------- 0 1.0 4.0 161 161
- 1.808 1 4 cbr 1000 ------- 0 1.0 4.0 101 101
+ 1.81 1 4 cbr 1000 ------- 0 1.0 4.0 162 162
r 1.81 1 4 cbr 1000 ------- 0 1.0 4.0 99 99
+ 1.815 1 4 cbr 1000 ------- 0 1.0 4.0 163 163
d 1.815 1 4 cbr 1000 ------- 0 1.0 4.0 163 163
- 1.816 1 4 cbr 1000 ------- 0 1.0 4.0 102 102
r 1.818 1 4 cbr 1000 ------- 0 1.0 4.0 100 100
+ 1.82 1 4 cbr 1000 ------- 0 1.0 4.0 164 164
- 1.824 1 4 cbr 1000 ------- 0 1.0 4.0 103 103
+ 1.825 1 4 cbr 1000 ------- 0 1.0 4.0 165 165
r 1.826 1 4 cbr 1000 ------- 0 1.0 4.0 101 101
+ 1.83 1 4 cbr 1000 ------- 0 1.0 4.0 166 166
d 1.83 1 4 cbr 1000 ------- 0 1.0 4.0 166 166
- 1.832 1 4 cbr 1000 ------- 0 1.0 4.0 104 104
r 1.834 1 4 cbr 1000 ------- 0 1.0 4.0 102 102
+ 1.835 1 4 cbr 1000 ------- 0 1.0 4.0 167 167
+ 1.84 1 4 cbr 1000 ------- 0 1.0 4.0 168 168
d 1.84 1 4 cbr 1000 ------- 0 1.0 4.0 168 168
- 1.84 1 4 cbr 1000 ------- 0 1.0 4.0 105 105
r 1.842 1 4 cbr 1000 ------- 0 1.0 4.0 103 103
+ 1.845 1 4 cbr 1000 ------- 0 1.0 4.0 169 169
- 1.848 1 4 cbr 1000 ------- 0 1.0 4.0 106 106
+ 1.85 1 4 cbr 1000 ------- 0 1.0 4.0 170 170
r 1.85 1 4 cbr 1000 ------- 0 1.0 4.0 104 104
+ 1.855 1 4 cbr 1000 ------- 0 1.0 4.0 171 171
d 1.855 1 4 cbr 1000 ------- 0 1.0 4.0 171 171
- 1.856 1 4 cbr 1000 ------- 0 1.0 4.0 107 107
r 1.858 1 4 cbr 1000 ------- 0 1.0 4.0 105 105
+ 1.86 1 4 cbr 1000 ------- 0 1.0 4.0 172 172
- 1.864 1 4 cbr 1000 ------- 0 1.0 4.0 108 108
+ 1.865 1 4 cbr 1000 ------- 0 1.0 4.0 173 173
r 1.866 1 4 cbr 1000 ------- 0 1.0 4.0 106 106
+ 1.87 1 4 cbr 1000 ------- 0 1.0 4.0 174 174
d 1.87 1 4 cbr 1000 ------- 0 1.0 4.0 174 174
- 1.872 1 4 cbr 1000 ------- 0 1.0 4.0 109 109
r 1.874 1 4 cbr 1000 ------- 0 1.0 4.0 107 107
+ 1.875 1 4 cbr 1000 ------- 0 1.0 4.0 175 175
+ 1.88 1 4 cbr 1000 ------- 0 1.0 4.0 176 176
d 1.88 1 4 cbr 1000 ------- 0 1.0 4.0 176 176
- 1.88 1 4 cbr 1000 ------- 0 1.0 4.0 110 110
r 1.882 1 4 cbr 1000 ------- 0 1.0 4.0 108 108
+ 1.885 1 4 cbr 1000 ------- 0 1.0 4.0 177 177
- 1.888 1 4 cbr 1000 ------- 0 1.0 4.0 111 111
+ 1.89 1 4 cbr 1000 ------- 0 1.0 4.0 178 178
r 1.89 1 4 cbr 1000 ------- 0 1.0 4.0 109 109
+ 1.895 1 4 cbr 1000 ------- 0 1.0 4.0 179 179
d 1.895 1 4 cbr 1000 ------- 0 1.0 4.0 179 179
- 1.896 1 4 cbr 1000 ------- 0 1.0 4.0 112 112
r 1.898 1 4 cbr 1000 ------- 0 1.0 4.0 110 110
+ 1.9 1 4 cbr 1000 ------- 0 1.0 4.0 180 180
- 1.904 1 4 cbr 1000 ------- 0 1.0 4.0 113 113
+ 1.905 1 4 cbr 1000 ------- 0 1.0 4.0 181 181
r 1.906 1 4 cbr 1000 ------- 0 1.0 4.0 111 111
+ 1.91 1 4 cbr 1000 ------- 0 1.0 4.0 182 182
d 1.91 1 4 cbr 1000 ------- 0 1.0 4.0 182 182
- 1.912 1 4 cbr 1000 ------- 0 1.0 4.0 114 114
r 1.914 1 4 cbr 1000 ------- 0 1.0 4.0 112 112
+ 1.915 1 4 cbr 1000 ------- 0 1.0 4.0 183 183
+ 1.92 1 4 cbr 1000 ------- 0 1.0 4.0 184 184
d 1.92 1 4 cbr 1000 ------- 0 1.0 4.0 184 184
- 1.92 1 4 cbr 1000 ------- 0 1.0 4.0 115 115
r 1.922 1 4 cbr 1000 ------- 0 1.0 4.0 113 113
+ 1.925 1 4 cbr 1000 ------- 0 1.0 4.0 185 185
- 1.928 1 4 cbr 1000 ------- 0 1.0 4.0 116 116
+ 1.93 1 4 cbr 1000 ------- 0 1.0 4.0 186 186
r 1.93 1 4 cbr 1000 ------- 0 1.0 4.0 114 114
+ 1.935 1 4 cbr 1000 ------- 0 1.0 4.0 187 187
d 1.935 1 4 cbr 1000 ------- 0 1.0 4.0 187 187
- 1.936 1 4 cbr 1000 ------- 0 1.0 4.0 117 117
r 1.938 1 4 cbr 1000 ------- 0 1.0 4.0 115 115
+ 1.94 1 4 cbr 1000 ------- 0 1.0 4.0 188 188
- 1.944 1 4 cbr 1000 ------- 0 1.0 4.0 118 118
+ 1.945 1 4 cbr 1000 ------- 0 1.0 4.0 189 189
r 1.946 1 4 cbr 1000 ------- 0 1.0 4.0 116 116
+ 1.95 1 4 cbr 1000 ------- 0 1.0 4.0 190 190
d 1.95 1 4 cbr 1000 ------- 0 1.0 4.0 190 190
- 1.952 1 4 cbr 1000 ------- 0 1.0 4.0 119 119
r 1.954 1 4 cbr 1000 ------- 0 1.0 4.0 117 117
+ 1.955 1 4 cbr 1000 ------- 0 1.0 4.0 191 191
+ 1.96 1 4 cbr 1000 ------- 0 1.0 4.0 192 192
d 1.96 1 4 cbr 1000 ------- 0 1.0 4.0 192 192
- 1.96 1 4 cbr 1000 ------- 0 1.0 4.0 120 120
r 1.962 1 4 cbr 1000 ------- 0 1.0 4.0 118 118
+ 1.965 1 4 cbr 1000 ------- 0 1.0 4.0 193 193
- 1.968 1 4 cbr 1000 ------- 0 1.0 4.0 121 121
+ 1.97 1 4 cbr 1000 ------- 0 1.0 4.0 194 194
r 1.97 1 4 cbr 1000 ------- 0 1.0 4.0 119 119
+ 1.975 1 4 cbr 1000 ------- 0 1.0 4.0 195 195
d 1.975 1 4 cbr 1000 ------- 0 1.0 4.0 195 195
- 1.976 1 4 cbr 1000 ------- 0 1.0 4.0 122 122
r 1.978 1 4 cbr 1000 ------- 0 1.0 4.0 120 120
+ 1.98 1 4 cbr 1000 ------- 0 1.0 4.0 196 196
- 1.984 1 4 cbr 1000 ------- 0 1.0 4.0 123 123
+ 1.985 1 4 cbr 1000 ------- 0 1.0 4.0 197 197
r 1.986 1 4 cbr 1000 ------- 0 1.0 4.0 121 121
+ 1.99 1 4 cbr 1000 ------- 0 1.0 4.0 198 198
d 1.99 1 4 cbr 1000 ------- 0 1.0 4.0 198 198
- 1.992 1 4 cbr 1000 ------- 0 1.0 4.0 124 124
r 1.994 1 4 cbr 1000 ------- 0 1.0 4.0 122 122
+ 1.995 1 4 cbr 1000 ------- 0 1.0 4.0 199 199
+ 2 1 4 cbr 1000 ------- 0 1.0 4.0 200 200
d 2 1 4 cbr 1000 ------- 0 1.0 4.0 200 200
- 2 1 4 cbr 1000 ------- 0 1.0 4.0 125 125
r 2.002 1 4 cbr 1000 ------- 0 1.0 4.0 123 123
+ 2.005 1 4 cbr 1000 ------- 0 1.0 4.0 201 201
- 2.008 1 4 cbr 1000 ------- 0 1.0 4.0 126 126
+ 2.01 1 4 cbr 1000 ------- 0 1.0 4.0 202 202
r 2.01 1 4 cbr 1000 ------- 0 1.0 4.0 124 124
+ 2.015 1 4 cbr 1000 ------- 0 1.0 4.0 203 203
d 2.015 1 4 cbr 1000 ------- 0 1.0 4.0 203 203
- 2.016 1 4 cbr 1000 ------- 0 1.0 4.0 127 127
r 2.018 1 4 cbr 1000 ------- 0 1.0 4.0 125 125
+ 2.02 1 4 cbr 1000 ------- 0 1.0 4.0 204 204
- 2.024 1 4 cbr 1000 ------- 0 1.0 4.0 128 128
+ 2.025 1 4 cbr 1000 ------- 0 1.0 4.0 205 205
r 2.026 1 4 cbr 1000 ------- 0 1.0 4.0 126 126
+ 2.03 1 4 cbr 1000 ------- 0 1.0 4.0 206 206
d 2.03 1 4 cbr 1000 ------- 0 1.0 4.0 206 206
- 2.032 1 4 cbr 1000 ------- 0 1.0 4.0 129 129
r 2.034 1 4 cbr 1000 ------- 0 1.0 4.0 127 127
+ 2.035 1 4 cbr 1000 ------- 0 1.0 4.0 207 207
+ 2.04 1 4 cbr 1000 ------- 0 1.0 4.0 208 208
d 2.04 1 4 cbr 1000 ------- 0 1.0 4.0 208 208
- 2.04 1 4 cbr 1000 ------- 0 1.0 4.0 130 130
r 2.042 1 4 cbr 1000 ------- 0 1.0 4.0 128 128
+ 2.045 1 4 cbr 1000 ------- 0 1.0 4.0 209 209
- 2.048 1 4 cbr 1000 ------- 0 1.0 4.0 132 132
+ 2.05 1 4 cbr 1000 ------- 0 1.0 4.0 210 210
r 2.05 1 4 cbr 1000 ------- 0 1.0 4.0 129 129
+ 2.055 1 4 cbr 1000 ------- 0 1.0 4.0 211 211
d 2.055 1 4 cbr 1000 ------- 0 1.0 4.0 211 211
- 2.056 1 4 cbr 1000 ------- 0 1.0 4.0 133 133
r 2.058 1 4 cbr 1000 ------- 0 1.0 4.0 130 130
+ 2.06 1 4 cbr 1000 ------- 0 1.0 4.0 212 212
- 2.064 1 4 cbr 1000 ------- 0 1.0 4.0 135 135
+ 2.065 1 4 cbr 1000 ------- 0 1.0 4.0 213 213
r 2.066 1 4 cbr 1000 ------- 0 1.0 4.0 132 132
+ 2.07 1 4 cbr 1000 ------- 0 1.0 4.0 214 214
d 2.07 1 4 cbr 1000 ------- 0 1.0 4.0 214 214
- 2.072 1 4 cbr 1000 ------- 0 1.0 4.0 137 137
r 2.074 1 4 cbr 1000 ------- 0 1.0 4.0 133 133
+ 2.075 1 4 cbr 1000 ------- 0 1.0 4.0 215 215
+ 2.08 1 4 cbr 1000 ------- 0 1.0 4.0 216 216
d 2.08 1 4 cbr 1000 ------- 0 1.0 4.0 216 216
- 2.08 1 4 cbr 1000 ------- 0 1.0 4.0 138 138
r 2.082 1 4 cbr 1000 ------- 0 1.0 4.0 135 135
+ 2.085 1 4 cbr 1000 ------- 0 1.0 4.0 217 217
- 2.088 1 4 cbr 1000 ------- 0 1.0 4.0 140 140
+ 2.09 1 4 cbr 1000 ------- 0 1.0 4.0 218 218
r 2.09 1 4 cbr 1000 ------- 0 1.0 4.0 137 137
+ 2.095 1 4 cbr 1000 ------- 0 1.0 4.0 219 219
d 2.095 1 4 cbr 1000 ------- 0 1.0 4.0 219 219
- 2.096 1 4 cbr 1000 ------- 0 1.0 4.0 141 141
r 2.098 1 4 cbr 1000 ------- 0 1.0 4.0 138 138
+ 2.1 1 4 cbr 1000 ------- 0 1.0 4.0 220 220
- 2.104 1 4 cbr 1000 ------- 0 1.0 4.0 143 143
+ 2.105 1 4 cbr 1000 ------- 0 1.0 4.0 221 221
r 2.106 1 4 cbr 1000 ------- 0 1.0 4.0 140 140
+ 2.11 1 4 cbr 1000 ------- 0 1.0 4.0 222 222
d 2.11 1 4 cbr 1000 ------- 0 1.0 4.0 222 222
- 2.112 1 4 cbr 1000 ------- 0 1.0 4.0 145 145
r 2.114 1 4 cbr 1000 ------- 0 1.0 4.0 141 141
+ 2.115 1 4 cbr 1000 ------- 0 1.0 4.0 223 223
+ 2.12 1 4 cbr 1000 ------- 0 1.0 4.0 224 224
d 2.12 1 4 cbr 1000 ------- 0 1.0 4.0 224 224
- 2.12 1 4 cbr 1000 ------- 0 1.0 4.0 146 146
r 2.122 1 4 cbr 1000 ------- 0 1.0 4.0 143 143
+ 2.125 1 4 cbr 1000 ------- 0 1.0 4.0 225 225
- 2.128 1 4 cbr 1000 ------- 0 1.0 4.0 148 148
+ 2.13 1 4 cbr 1000 ------- 0 1.0 4.0 226 226
r 2.13 1 4 cbr 1000 ------- 0 1.0 4.0 145 145
+ 2.135 1 4 cbr 1000 ------- 0 1.0 4.0 227 227
d 2.135 1 4 cbr 1000 ------- 0 1.0 4.0 227 227
- 2.136 1 4 cbr 1000 ------- 0 1.0 4.0 149 149
r 2.138 1 4 cbr 1000 ------- 0 1.0 4.0 146 146
+ 2.14 1 4 cbr 1000 ------- 0 1.0 4.0 228 228
- 2.144 1 4 cbr 1000 ------- 0 1.0 4.0 151 151
+ 2.145 1 4 cbr 1000 ------- 0 1.0 4.0 229 229
r 2.146 1 4 cbr 1000 ------- 0 1.0 4.0 148 148
+ 2.15 1 4 cbr 1000 ------- 0 1.0 4.0 230 230
d 2.15 1 4 cbr 1000 ------- 0 1.0 4.0 230 230
- 2.152 1 4 cbr 1000 ------- 0 1.0 4.0 153 153
r 2.154 1 4 cbr 1000 ------- 0 1.0 4.0 149 149
+ 2.155 1 4 cbr 1000 ------- 0 1.0 4.0 231 231
+ 2.16 1 4 cbr 1000 ------- 0 1.0 4.0 232 232
d 2.16 1 4 cbr 1000 ------- 0 1.0 4.0 232 232
- 2.16 1 4 cbr 1000 ------- 0 1.0 4.0 154 154
r 2.162 1 4 cbr 1000 ------- 0 1.0 4.0 151 151
+ 2.165 1 4 cbr 1000 ------- 0 1.0 4.0 233 233
- 2.168 1 4 cbr 1000 ------- 0 1.0 4.0 156 156
+ 2.17 1 4 cbr 1000 ------- 0 1.0 4.0 234 234
r 2.17 1 4 cbr 1000 ------- 0 1.0 4.0 153 153
+ 2.175 1 4 cbr 1000 ------- 0 1.0 4.0 235 235
d 2.175 1 4 cbr 1000 ------- 0 1.0 4.0 235 235
- 2.176 1 4 cbr 1000 ------- 0 1.0 4.0 157 157
r 2.178 1 4 cbr 1000 ------- 0 1.0 4.0 154 154
+ 2.18 1 4 cbr 1000 ------- 0 1.0 4.0 236 236
- 2.184 1 4 cbr 1000 ------- 0 1.0 4.0 159 159
+ 2.185 1 4 cbr 1000 ------- 0 1.0 4.0 237 237
r 2.186 1 4 cbr 1000 ------- 0 1.0 4.0 156 156
+ 2.19 1 4 cbr 1000 ------- 0 1.0 4.0 238 238
d 2.19 1 4 cbr 1000 ------- 0 1.0 4.0 238 238
- 2.192 1 4 cbr 1000 ------- 0 1.0 4.0 161 161
r 2.194 1 4 cbr 1000 ------- 0 1.0 4.0 157 157
+ 2.195 1 4 cbr 1000 ------- 0 1.0 4.0 239 239
+ 2.2 1 4 cbr 1000 ------- 0 1.0 4.0 240 240
d 2.2 1 4 cbr 1000 ------- 0 1.0 4.0 240 240
- 2.2 1 4 cbr 1000 ------- 0 1.0 4.0 162 162
r 2.202 1 4 cbr 1000 ------- 0 1.0 4.0 159 159
+ 2.205 1 4 cbr 1000 ------- 0 1.0 4.0 241 241
- 2.208 1 4 cbr 1000 ------- 0 1.0 4.0 164 164
+ 2.21 1 4 cbr 1000 ------- 0 1.0 4.0 242 242
r 2.21 1 4 cbr 1000 ------- 0 1.0 4.0 161 161
+ 2.215 1 4 cbr 1000 ------- 0 1.0 4.0 243 243
d 2.215 1 4 cbr 1000 ------- 0 1.0 4.0 243 243
- 2.216 1 4 cbr 1000 ------- 0 1.0 4.0 165 165
r 2.218 1 4 cbr 1000 ------- 0 1.0 4.0 162 162
+ 2.22 1 4 cbr 1000 ------- 0 1.0 4.0 244 244
- 2.224 1 4 cbr 1000 ------- 0 1.0 4.0 167 167
+ 2.225 1 4 cbr 1000 ------- 0 1.0 4.0 245 245
r 2.226 1 4 cbr 1000 ------- 0 1.0 4.0 164 164
+ 2.23 1 4 cbr 1000 ------- 0 1.0 4.0 246 246
d 2.23 1 4 cbr 1000 ------- 0 1.0 4.0 246 246
- 2.232 1 4 cbr 1000 ------- 0 1.0 4.0 169 169
r 2.234 1 4 cbr 1000 ------- 0 1.0 4.0 165 165
+ 2.235 1 4 cbr 1000 ------- 0 1.0 4.0 247 247
+ 2.24 1 4 cbr 1000 ------- 0 1.0 4.0 248 248
d 2.24 1 4 cbr 1000 ------- 0 1.0 4.0 248 248
- 2.24 1 4 cbr 1000 ------- 0 1.0 4.0 170 170
r 2.242 1 4 cbr 1000 ------- 0 1.0 4.0 167 167
+ 2.245 1 4 cbr 1000 ------- 0 1.0 4.0 249 249
- 2.248 1 4 cbr 1000 ------- 0 1.0 4.0 172 172
+ 2.25 1 4 cbr 1000 ------- 0 1.0 4.0 250 250
r 2.25 1 4 cbr 1000 ------- 0 1.0 4.0 169 169
+ 2.255 1 4 cbr 1000 ------- 0 1.0 4.0 251 251
d 2.255 1 4 cbr 1000 ------- 0 1.0 4.0 251 251
- 2.256 1 4 cbr 1000 ------- 0 1.0 4.0 173 173
r 2.258 1 4 cbr 1000 ------- 0 1.0 4.0 170 170
+ 2.26 1 4 cbr 1000 ------- 0 1.0 4.0 252 252
- 2.264 1 4 cbr 1000 ------- 0 1.0 4.0 175 175
+ 2.265 1 4 cbr 1000 ------- 0 1.0 4.0 253 253
r 2.266 1 4 cbr 1000 ------- 0 1.0 4.0 172 172
+ 2.27 1 4 cbr 1000 ------- 0 1.0 4.0 254 254
d 2.27 1 4 cbr 1000 ------- 0 1.0 4.0 254 254
- 2.272 1 4 cbr 1000 ------- 0 1.0 4.0 177 177
r 2.274 1 4 cbr 1000 ------- 0 1.0 4.0 173 173
+ 2.275 1 4 cbr 1000 ------- 0 1.0 4.0 255 255
+ 2.28 1 4 cbr 1000 ------- 0 1.0 4.0 256 256
d 2.28 1 4 cbr 1000 ------- 0 1.0 4.0 256 256
- 2.28 1 4 cbr 1000 ------- 0 1.0 4.0 178 178
r 2.282 1 4 cbr 1000 ------- 0 1.0 4.0 175 175
+ 2.285 1 4 cbr 1000 ------- 0 1.0 4.0 257 257
- 2.288 1 4 cbr 1000 ------- 0 1.0 4.0 180 180
+ 2.29 1 4 cbr 1000 ------- 0 1.0 4.0 258 258
r 2.29 1 4 cbr 1000 ------- 0 1.0 4.0 177 177
+ 2.295 1 4 cbr 1000 ------- 0 1.0 4.0 259 259
d 2.295 1 4 cbr 1000 ------- 0 1.0 4.0 259 259
- 2.296 1 4 cbr 1000 ------- 0 1.0 4.0 181 181
r 2.298 1 4 cbr 1000 ------- 0 1.0 4.0 178 178
+ 2.3 1 4 cbr 1000 ------- 0 1.0 4.0 260 260
- 2.304 1 4 cbr 1000 ------- 0 1.0 4.0 183 183
+ 2.305 1 4 cbr 1000 ------- 0 1.0 4.0 261 261
r 2.306 1 4 cbr 1000 ------- 0 1.0 4.0 180 180
+ 2.31 1 4 cbr 1000 ------- 0 1.0 4.0 262 262
d 2.31 1 4 cbr 1000 ------- 0 1.0 4.0 262 262
- 2.312 1 4 cbr 1000 ------- 0 1.0 4.0 185 185
r 2.314 1 4 cbr 1000 ------- 0 1.0 4.0 181 181
+ 2.315 1 4 cbr 1000 ------- 0 1.0 4.0 263 263
+ 2.32 1 4 cbr 1000 ------- 0 1.0 4.0 264 264
d 2.32 1 4 cbr 1000 ------- 0 1.0 4.0 264 264
- 2.32 1 4 cbr 1000 ------- 0 1.0 4.0 186 186
r 2.322 1 4 cbr 1000 ------- 0 1.0 4.0 183 183
+ 2.325 1 4 cbr 1000 ------- 0 1.0 4.0 265 265
- 2.328 1 4 cbr 1000 ------- 0 1.0 4.0 188 188
+ 2.33 1 4 cbr 1000 ------- 0 1.0 4.0 266 266
r 2.33 1 4 cbr 1000 ------- 0 1.0 4.0 185 185
+ 2.335 1 4 cbr 1000 ------- 0 1.0 4.0 267 267
d 2.335 1 4 cbr 1000 ------- 0 1.0 4.0 267 267
- 2.336 1 4 cbr 1000 ------- 0 1.0 4.0 189 189
r 2.338 1 4 cbr 1000 ------- 0 1.0 4.0 186 186
+ 2.34 1 4 cbr 1000 ------- 0 1.0 4.0 268 268
- 2.344 1 4 cbr 1000 ------- 0 1.0 4.0 191 191
+ 2.345 1 4 cbr 1000 ------- 0 1.0 4.0 269 269
r 2.346 1 4 cbr 1000 ------- 0 1.0 4.0 188 188