V -t * -v 1.0a5 -a 0
A -t * -n 1 -p 0 -o 0x7fffffff -c 30 -a 1
A -t * -h 1 -m 1073741823 -s 0
c -t * -i 2 -n yellow
c -t * -i 3 -n Red
n -t * -a 4 -s 4 -S UP -v circle -c black -i black
n -t * -a 0 -s 0 -S UP -v circle -c black -i black
n -t * -a 5 -s 5 -S UP -v circle -c black -i black
n -t * -a 1 -s 1 -S UP -v circle -c black -i black
n -t * -a 2 -s 2 -S UP -v circle -c black -i black
n -t * -a 3 -s 3 -S UP -v circle -c black -i black
l -t * -s 0 -d 1 -S UP -r 1000000 -D 0.01 -c black -o right
X -t * -n 6 -r 0.5Mb -D 10ms -o left
L -t * -s 6 -d 1 -o up
L -t * -s 6 -d 2 -o down
L -t * -s 6 -d 3 -o up
L -t * -s 6 -d 4 -o down
L -t * -s 6 -d 5 -o up
+ -t 0.5 -s 0 -d 1 -p tcp -e 40 -c 3 -i 0 -a 3 -x {0.0 5.0 0 ------- null}
- -t 0.5 -s 0 -d 1 -p tcp -e 40 -c 3 -i 0 -a 3 -x {0.0 5.0 0 ------- null}
h -t 0.5 -s 0 -d 1 -p tcp -e 40 -c 3 -i 0 -a 3 -x {0.0 5.0 -1 ------- null}
r -t 0.51032 -s 0 -d 1 -p tcp -e 40 -c 3 -i 0 -a 3 -x {0.0 5.0 0 ------- null}
h -t 0.51032 -s 1 -d 6 -p tcp -e 40 -c 3 -i 0 -a 3 -x {0.0 5.0 0 ------- null}
+ -t 0.52032 -s 1 -d 6 -p tcp -e 40 -c 3 -i 0 -a 3 -x {0.0 5.0 0 ------- null}
- -t 0.52032 -s 1 -d 6 -p tcp -e 40 -c 3 -i 0 -a 3 -x {0.0 5.0 0 ------- null}
h -t 0.52032 -s 1 -d 6 -p tcp -e 40 -c 3 -i 0 -a 3 -x {0.0 5.0 -1 ------- null}
d -t 0.520324 -s 4 -d 6 -p tcp -e 40 -c 3 -i 0 -a 3 -x {0.0 5.0 0 ------- null}
d -t 0.520324 -s 3 -d 6 -p tcp -e 40 -c 3 -i 0 -a 3 -x {0.0 5.0 0 ------- null}
d -t 0.520324 -s 2 -d 6 -p tcp -e 40 -c 3 -i 0 -a 3 -x {0.0 5.0 0 ------- null}
r -t 0.530324 -s 6 -d 5 -p tcp -e 40 -c 3 -i 0 -a 3 -x {0.0 5.0 0 ------- null}
h -t 0.530324 -s 5 -d 6 -p ack -e 40 -c 3 -i 1 -a 3 -x {5.0 0.0 0 ------- null}
+ -t 0.540324 -s 5 -d 6 -p ack -e 40 -c 3 -i 1 -a 3 -x {5.0 0.0 0 ------- null}
- -t 0.540324 -s 5 -d 6 -p ack -e 40 -c 3 -i 1 -a 3 -x {5.0 0.0 0 ------- null}
h -t 0.540324 -s 5 -d 6 -p ack -e 40 -c 3 -i 1 -a 3 -x {5.0 0.0 -1 ------- null}
d -t 0.540328 -s 4 -d 6 -p ack -e 40 -c 3 -i 1 -a 3 -x {5.0 0.0 0 ------- null}
d -t 0.540328 -s 3 -d 6 -p ack -e 40 -c 3 -i 1 -a 3 -x {5.0 0.0 0 ------- null}
d -t 0.540328 -s 2 -d 6 -p ack -e 40 -c 3 -i 1 -a 3 -x {5.0 0.0 0 ------- null}
r -t 0.550328 -s 6 -d 1 -p ack -e 40 -c 3 -i 1 -a 3 -x {5.0 0.0 0 ------- null}
+ -t 0.550328 -s 1 -d 0 -p ack -e 40 -c 3 -i 1 -a 3 -x {5.0 0.0 0 ------- null}
- -t 0.550328 -s 1 -d 0 -p ack -e 40 -c 3 -i 1 -a 3 -x {5.0 0.0 0 ------- null}
h -t 0.550328 -s 1 -d 0 -p ack -e 40 -c 3 -i 1 -a 3 -x {5.0 0.0 -1 ------- null}
r -t 0.560648 -s 1 -d 0 -p ack -e 40 -c 3 -i 1 -a 3 -x {5.0 0.0 0 ------- null}
+ -t 0.560648 -s 0 -d 1 -p tcp -e 1040 -c 3 -i 2 -a 3 -x {0.0 5.0 1 ------- null}
- -t 0.560648 -s 0 -d 1 -p tcp -e 1040 -c 3 -i 2 -a 3 -x {0.0 5.0 1 ------- null}
h -t 0.560648 -s 0 -d 1 -p tcp -e 1040 -c 3 -i 2 -a 3 -x {0.0 5.0 -1 ------- null}
+ -t 0.560648 -s 0 -d 1 -p tcp -e 1040 -c 3 -i 3 -a 3 -x {0.0 5.0 2 ------- null}
- -t 0.568968 -s 0 -d 1 -p tcp -e 1040 -c 3 -i 3 -a 3 -x {0.0 5.0 2 ------- null}
h -t 0.568968 -s 0 -d 1 -p tcp -e 1040 -c 3 -i 3 -a 3 -x {0.0 5.0 -1 ------- null}
r -t 0.578968 -s 0 -d 1 -p tcp -e 1040 -c 3 -i 2 -a 3 -x {0.0 5.0 1 ------- null}
h -t 0.578968 -s 1 -d 6 -p tcp -e 1040 -c 3 -i 2 -a 3 -x {0.0 5.0 1 ------- null}
r -t 0.587288 -s 0 -d 1 -p tcp -e 1040 -c 3 -i 3 -a 3 -x {0.0 5.0 2 ------- null}
h -t 0.587288 -s 1 -d 6 -p tcp -e 1040 -c 3 -i 3 -a 3 -x {0.0 5.0 2 ------- null}
+ -t 0.588968 -s 1 -d 6 -p tcp -e 1040 -c 3 -i 2 -a 3 -x {0.0 5.0 1 ------- null}
- -t 0.588968 -s 1 -d 6 -p tcp -e 1040 -c 3 -i 2 -a 3 -x {0.0 5.0 1 ------- null}
h -t 0.588968 -s 1 -d 6 -p tcp -e 1040 -c 3 -i 2 -a 3 -x {0.0 5.0 -1 ------- null}
d -t 0.588972 -s 4 -d 6 -p tcp -e 1040 -c 3 -i 2 -a 3 -x {0.0 5.0 1 ------- null}
d -t 0.588972 -s 3 -d 6 -p tcp -e 1040 -c 3 -i 2 -a 3 -x {0.0 5.0 1 ------- null}
d -t 0.588972 -s 2 -d 6 -p tcp -e 1040 -c 3 -i 2 -a 3 -x {0.0 5.0 1 ------- null}
+ -t 0.597288 -s 1 -d 6 -p tcp -e 1040 -c 3 -i 3 -a 3 -x {0.0 5.0 2 ------- null}
- -t 0.597288 -s 1 -d 6 -p tcp -e 1040 -c 3 -i 3 -a 3 -x {0.0 5.0 2 ------- null}
h -t 0.597288 -s 1 -d 6 -p tcp -e 1040 -c 3 -i 3 -a 3 -x {0.0 5.0 -1 ------- null}
d -t 0.597292 -s 4 -d 6 -p tcp -e 1040 -c 3 -i 3 -a 3 -x {0.0 5.0 2 ------- null}
d -t 0.597292 -s 3 -d 6 -p tcp -e 1040 -c 3 -i 3 -a 3 -x {0.0 5.0 2 ------- null}
d -t 0.597292 -s 2 -d 6 -p tcp -e 1040 -c 3 -i 3 -a 3 -x {0.0 5.0 2 ------- null}
r -t 0.598972 -s 6 -d 5 -p tcp -e 1040 -c 3 -i 2 -a 3 -x {0.0 5.0 1 ------- null}
h -t 0.598972 -s 5 -d 6 -p ack -e 40 -c 3 -i 4 -a 3 -x {5.0 0.0 1 ------- null}
r -t 0.607292 -s 6 -d 5 -p tcp -e 1040 -c 3 -i 3 -a 3 -x {0.0 5.0 2 ------- null}
h -t 0.607292 -s 5 -d 6 -p ack -e 40 -c 3 -i 5 -a 3 -x {5.0 0.0 2 ------- null}
+ -t 0.608972 -s 5 -d 6 -p ack -e 40 -c 3 -i 4 -a 3 -x {5.0 0.0 1 ------- null}
- -t 0.608972 -s 5 -d 6 -p ack -e 40 -c 3 -i 4 -a 3 -x {5.0 0.0 1 ------- null}
h -t 0.608972 -s 5 -d 6 -p ack -e 40 -c 3 -i 4 -a 3 -x {5.0 0.0 -1 ------- null}
d -t 0.608976 -s 4 -d 6 -p ack -e 40 -c 3 -i 4 -a 3 -x {5.0 0.0 1 ------- null}
d -t 0.608976 -s 3 -d 6 -p ack -e 40 -c 3 -i 4 -a 3 -x {5.0 0.0 1 ------- null}
d -t 0.608976 -s 2 -d 6 -p ack -e 40 -c 3 -i 4 -a 3 -x {5.0 0.0 1 ------- null}
+ -t 0.617292 -s 5 -d 6 -p ack -e 40 -c 3 -i 5 -a 3 -x {5.0 0.0 2 ------- null}
- -t 0.617292 -s 5 -d 6 -p ack -e 40 -c 3 -i 5 -a 3 -x {5.0 0.0 2 ------- null}
h -t 0.617292 -s 5 -d 6 -p ack -e 40 -c 3 -i 5 -a 3 -x {5.0 0.0 -1 ------- null}
d -t 0.617296 -s 4 -d 6 -p ack -e 40 -c 3 -i 5 -a 3 -x {5.0 0.0 2 ------- null}
d -t 0.617296 -s 3 -d 6 -p ack -e 40 -c 3 -i 5 -a 3 -x {5.0 0.0 2 ------- null}
d -t 0.617296 -s 2 -d 6 -p ack -e 40 -c 3 -i 5 -a 3 -x {5.0 0.0 2 ------- null}
r -t 0.618976 -s 6 -d 1 -p ack -e 40 -c 3 -i 4 -a 3 -x {5.0 0.0 1 ------- null}
+ -t 0.618976 -s 1 -d 0 -p ack -e 40 -c 3 -i 4 -a 3 -x {5.0 0.0 1 ------- null}
- -t 0.618976 -s 1 -d 0 -p ack -e 40 -c 3 -i 4 -a 3 -x {5.0 0.0 1 ------- null}
h -t 0.618976 -s 1 -d 0 -p ack -e 40 -c 3 -i 4 -a 3 -x {5.0 0.0 -1 ------- null}
r -t 0.627296 -s 6 -d 1 -p ack -e 40 -c 3 -i 5 -a 3 -x {5.0 0.0 2 ------- null}
+ -t 0.627296 -s 1 -d 0 -p ack -e 40 -c 3 -i 5 -a 3 -x {5.0 0.0 2 ------- null}
- -t 0.627296 -s 1 -d 0 -p ack -e 40 -c 3 -i 5 -a 3 -x {5.0 0.0 2 ------- null}
h -t 0.627296 -s 1 -d 0 -p ack -e 40 -c 3 -i 5 -a 3 -x {5.0 0.0 -1 ------- null}
r -t 0.629296 -s 1 -d 0 -p ack -e 40 -c 3 -i 4 -a 3 -x {5.0 0.0 1 ------- null}
+ -t 0.629296 -s 0 -d 1 -p tcp -e 1040 -c 3 -i 6 -a 3 -x {0.0 5.0 3 ------- null}
- -t 0.629296 -s 0 -d 1 -p tcp -e 1040 -c 3 -i 6 -a 3 -x {0.0 5.0 3 ------- null}
h -t 0.629296 -s 0 -d 1 -p tcp -e 1040 -c 3 -i 6 -a 3 -x {0.0 5.0 -1 ------- null}
+ -t 0.629296 -s 0 -d 1 -p tcp -e 1040 -c 3 -i 7 -a 3 -x {0.0 5.0 4 ------- null}
r -t 0.637616 -s 1 -d 0 -p ack -e 40 -c 3 -i 5 -a 3 -x {5.0 0.0 2 ------- null}
+ -t 0.637616 -s 0 -d 1 -p tcp -e 1040 -c 3 -i 8 -a 3 -x {0.0 5.0 5 ------- null}
+ -t 0.637616 -s 0 -d 1 -p tcp -e 1040 -c 3 -i 9 -a 3 -x {0.0 5.0 6 ------- null}
- -t 0.637616 -s 0 -d 1 -p tcp -e 1040 -c 3 -i 7 -a 3 -x {0.0 5.0 4 ------- null}
h -t 0.637616 -s 0 -d 1 -p tcp -e 1040 -c 3 -i 7 -a 3 -x {0.0 5.0 -1 ------- null}
- -t 0.645936 -s 0 -d 1 -p tcp -e 1040 -c 3 -i 8 -a 3 -x {0.0 5.0 5 ------- null}
h -t 0.645936 -s 0 -d 1 -p tcp -e 1040 -c 3 -i 8 -a 3 -x {0.0 5.0 -1 ------- null}
r -t 0.647616 -s 0 -d 1 -p tcp -e 1040 -c 3 -i 6 -a 3 -x {0.0 5.0 3 ------- null}
h -t 0.647616 -s 1 -d 6 -p tcp -e 1040 -c 3 -i 6 -a 3 -x {0.0 5.0 3 ------- null}
- -t 0.654256 -s 0 -d 1 -p tcp -e 1040 -c 3 -i 9 -a 3 -x {0.0 5.0 6 ------- null}
h -t 0.654256 -s 0 -d 1 -p tcp -e 1040 -c 3 -i 9 -a 3 -x {0.0 5.0 -1 ------- null}
r -t 0.655936 -s 0 -d 1 -p tcp -e 1040 -c 3 -i 7 -a 3 -x {0.0 5.0 4 ------- null}
h -t 0.655936 -s 1 -d 6 -p tcp -e 1040 -c 3 -i 7 -a 3 -x {0.0 5.0 4 ------- null}
+ -t 0.657616 -s 1 -d 6 -p tcp -e 1040 -c 3 -i 6 -a 3 -x {0.0 5.0 3 ------- null}
- -t 0.657616 -s 1 -d 6 -p tcp -e 1040 -c 3 -i 6 -a 3 -x {0.0 5.0 3 ------- null}
h -t 0.657616 -s 1 -d 6 -p tcp -e 1040 -c 3 -i 6 -a 3 -x {0.0 5.0 -1 ------- null}
d -t 0.65762 -s 4 -d 6 -p tcp -e 1040 -c 3 -i 6 -a 3 -x {0.0 5.0 3 ------- null}
d -t 0.65762 -s 3 -d 6 -p tcp -e 1040 -c 3 -i 6 -a 3 -x {0.0 5.0 3 ------- null}
d -t 0.65762 -s 2 -d 6 -p tcp -e 1040 -c 3 -i 6 -a 3 -x {0.0 5.0 3 ------- null}
r -t 0.664256 -s 0 -d 1 -p tcp -e 1040 -c 3 -i 8 -a 3 -x {0.0 5.0 5 ------- null}
h -t 0.664256 -s 1 -d 6 -p tcp -e 1040 -c 3 -i 8 -a 3 -x {0.0 5.0 5 ------- null}
+ -t 0.665936 -s 1 -d 6 -p tcp -e 1040 -c 3 -i 7 -a 3 -x {0.0 5.0 4 ------- null}
- -t 0.665936 -s 1 -d 6 -p tcp -e 1040 -c 3 -i 7 -a 3 -x {0.0 5.0 4 ------- null}
h -t 0.665936 -s 1 -d 6 -p tcp -e 1040 -c 3 -i 7 -a 3 -x {0.0 5.0 -1 ------- null}
d -t 0.66594 -s 4 -d 6 -p tcp -e 1040 -c 3 -i 7 -a 3 -x {0.0 5.0 4 ------- null}
d -t 0.66594 -s 3 -d 6 -p tcp -e 1040 -c 3 -i 7 -a 3 -x {0.0 5.0 4 ------- null}
d -t 0.66594 -s 2 -d 6 -p tcp -e 1040 -c 3 -i 7 -a 3 -x {0.0 5.0 4 ------- null}
r -t 0.66762 -s 6 -d 5 -p tcp -e 1040 -c 3 -i 6 -a 3 -x {0.0 5.0 3 ------- null}
h -t 0.66762 -s 5 -d 6 -p ack -e 40 -c 3 -i 10 -a 3 -x {5.0 0.0 3 ------- null}
r -t 0.672576 -s 0 -d 1 -p tcp -e 1040 -c 3 -i 9 -a 3 -x {0.0 5.0 6 ------- null}
h -t 0.672576 -s 1 -d 6 -p tcp -e 1040 -c 3 -i 9 -a 3 -x {0.0 5.0 6 ------- null}
+ -t 0.674256 -s 1 -d 6 -p tcp -e 1040 -c 3 -i 8 -a 3 -x {0.0 5.0 5 ------- null}
- -t 0.674256 -s 1 -d 6 -p tcp -e 1040 -c 3 -i 8 -a 3 -x {0.0 5.0 5 ------- null}
h -t 0.674256 -s 1 -d 6 -p tcp -e 1040 -c 3 -i 8 -a 3 -x {0.0 5.0 -1 ------- null}
d -t 0.67426 -s 4 -d 6 -p tcp -e 1040 -c 3 -i 8 -a 3 -x {0.0 5.0 5 ------- null}
d -t 0.67426 -s 3 -d 6 -p tcp -e 1040 -c 3 -i 8 -a 3 -x {0.0 5.0 5 ------- null}
d -t 0.67426 -s 2 -d 6 -p tcp -e 1040 -c 3 -i 8 -a 3 -x {0.0 5.0 5 ------- null}
r -t 0.67594 -s 6 -d 5 -p tcp -e 1040 -c 3 -i 7 -a 3 -x {0.0 5.0 4 ------- null}
h -t 0.67594 -s 5 -d 6 -p ack -e 40 -c 3 -i 11 -a 3 -x {5.0 0.0 4 ------- null}
+ -t 0.67762 -s 5 -d 6 -p ack -e 40 -c 3 -i 10 -a 3 -x {5.0 0.0 3 ------- null}
- -t 0.67762 -s 5 -d 6 -p ack -e 40 -c 3 -i 10 -a 3 -x {5.0 0.0 3 ------- null}
h -t 0.67762 -s 5 -d 6 -p ack -e 40 -c 3 -i 10 -a 3 -x {5.0 0.0 -1 ------- null}
d -t 0.677624 -s 4 -d 6 -p ack -e 40 -c 3 -i 10 -a 3 -x {5.0 0.0 3 ------- null}
d -t 0.677624 -s 3 -d 6 -p ack -e 40 -c 3 -i 10 -a 3 -x {5.0 0.0 3 ------- null}
d -t 0.677624 -s 2 -d 6 -p ack -e 40 -c 3 -i 10 -a 3 -x {5.0 0.0 3 ------- null}
+ -t 0.682576 -s 1 -d 6 -p tcp -e 1040 -c 3 -i 9 -a 3 -x {0.0 5.0 6 ------- null}
- -t 0.682576 -s 1 -d 6 -p tcp -e 1040 -c 3 -i 9 -a 3 -x {0.0 5.0 6 ------- null}
h -t 0.682576 -s 1 -d 6 -p tcp -e 1040 -c 3 -i 9 -a 3 -x {0.0 5.0 -1 ------- null}
d -t 0.68258 -s 4 -d 6 -p tcp -e 1040 -c 3 -i 9 -a 3 -x {0.0 5.0 6 ------- null}
d -t 0.68258 -s 3 -d 6 -p tcp -e 1040 -c 3 -i 9 -a 3 -x {0.0 5.0 6 ------- null}
d -t 0.68258 -s 2 -d 6 -p tcp -e 1040 -c 3 -i 9 -a 3 -x {0.0 5.0 6 ------- null}
r -t 0.68426 -s 6 -d 5 -p tcp -e 1040 -c 3 -i 8 -a 3 -x {0.0 5.0 5 ------- null}
h -t 0.68426 -s 5 -d 6 -p ack -e 40 -c 3 -i 12 -a 3 -x {5.0 0.0 5 ------- null}
+ -t 0.68594 -s 5 -d 6 -p ack -e 40 -c 3 -i 11 -a 3 -x {5.0 0.0 4 ------- null}
- -t 0.68594 -s 5 -d 6 -p ack -e 40 -c 3 -i 11 -a 3 -x {5.0 0.0 4 ------- null}
h -t 0.68594 -s 5 -d 6 -p ack -e 40 -c 3 -i 11 -a 3 -x {5.0 0.0 -1 ------- null}
d -t 0.685944 -s 4 -d 6 -p ack -e 40 -c 3 -i 11 -a 3 -x {5.0 0.0 4 ------- null}
d -t 0.685944 -s 3 -d 6 -p ack -e 40 -c 3 -i 11 -a 3 -x {5.0 0.0 4 ------- null}
d -t 0.685944 -s 2 -d 6 -p ack -e 40 -c 3 -i 11 -a 3 -x {5.0 0.0 4 ------- null}
r -t 0.687624 -s 6 -d 1 -p ack -e 40 -c 3 -i 10 -a 3 -x {5.0 0.0 3 ------- null}
+ -t 0.687624 -s 1 -d 0 -p ack -e 40 -c 3 -i 10 -a 3 -x {5.0 0.0 3 ------- null}
- -t 0.687624 -s 1 -d 0 -p ack -e 40 -c 3 -i 10 -a 3 -x {5.0 0.0 3 ------- null}
h -t 0.687624 -s 1 -d 0 -p ack -e 40 -c 3 -i 10 -a 3 -x {5.0 0.0 -1 ------- null}
r -t 0.69258 -s 6 -d 5 -p tcp -e 1040 -c 3 -i 9 -a 3 -x {0.0 5.0 6 ------- null}
h -t 0.69258 -s 5 -d 6 -p ack -e 40 -c 3 -i 13 -a 3 -x {5.0 0.0 6 ------- null}
+ -t 0.69426 -s 5 -d 6 -p ack -e 40 -c 3 -i 12 -a 3 -x {5.0 0.0 5 ------- null}
- -t 0.69426 -s 5 -d 6 -p ack -e 40 -c 3 -i 12 -a 3 -x {5.0 0.0 5 ------- null}
h -t 0.69426 -s 5 -d 6 -p ack -e 40 -c 3 -i 12 -a 3 -x {5.0 0.0 -1 ------- null}
d -t 0.694264 -s 4 -d 6 -p ack -e 40 -c 3 -i 12 -a 3 -x {5.0 0.0 5 ------- null}
d -t 0.694264 -s 3 -d 6 -p ack -e 40 -c 3 -i 12 -a 3 -x {5.0 0.0 5 ------- null}
d -t 0.694264 -s 2 -d 6 -p ack -e 40 -c 3 -i 12 -a 3 -x {5.0 0.0 5 ------- null}
r -t 0.695944 -s 6 -d 1 -p ack -e 40 -c 3 -i 11 -a 3 -x {5.0 0.0 4 ------- null}
+ -t 0.695944 -s 1 -d 0 -p ack -e 40 -c 3 -i 11 -a 3 -x {5.0 0.0 4 ------- null}
- -t 0.695944 -s 1 -d 0 -p ack -e 40 -c 3 -i 11 -a 3 -x {5.0 0.0 4 ------- null}
h -t 0.695944 -s 1 -d 0 -p ack -e 40 -c 3 -i 11 -a 3 -x {5.0 0.0 -1 ------- null}
r -t 0.697944 -s 1 -d 0 -p ack -e 40 -c 3 -i 10 -a 3 -x {5.0 0.0 3 ------- null}
+ -t 0.697944 -s 0 -d 1 -p tcp -e 1040 -c 3 -i 14 -a 3 -x {0.0 5.0 7 ------- null}
- -t 0.697944 -s 0 -d 1 -p tcp -e 1040 -c 3 -i 14 -a 3 -x {0.0 5.0 7 ------- null}
h -t 0.697944 -s 0 -d 1 -p tcp -e 1040 -c 3 -i 14 -a 3 -x {0.0 5.0 -1 ------- null}
+ -t 0.697944 -s 0 -d 1 -p tcp -e 1040 -c 3 -i 15 -a 3 -x {0.0 5.0 8 ------- null}
+ -t 0.70258 -s 5 -d 6 -p ack -e 40 -c 3 -i 13 -a 3 -x {5.0 0.0 6 ------- null}
- -t 0.70258 -s 5 -d 6 -p ack -e 40 -c 3 -i 13 -a 3 -x {5.0 0.0 6 ------- null}
h -t 0.70258 -s 5 -d 6 -p ack -e 40 -c 3 -i 13 -a 3 -x {5.0 0.0 -1 ------- null}
d -t 0.702584 -s 4 -d 6 -p ack -e 40 -c 3 -i 13 -a 3 -x {5.0 0.0 6 ------- null}
d -t 0.702584 -s 3 -d 6 -p ack -e 40 -c 3 -i 13 -a 3 -x {5.0 0.0 6 ------- null}
d -t 0.702584 -s 2 -d 6 -p ack -e 40 -c 3 -i 13 -a 3 -x {5.0 0.0 6 ------- null}
r -t 0.704264 -s 6 -d 1 -p ack -e 40 -c 3 -i 12 -a 3 -x {5.0 0.0 5 ------- null}
+ -t 0.704264 -s 1 -d 0 -p ack -e 40 -c 3 -i 12 -a 3 -x {5.0 0.0 5 ------- null}
- -t 0.704264 -s 1 -d 0 -p ack -e 40 -c 3 -i 12 -a 3 -x {5.0 0.0 5 ------- null}
h -t 0.704264 -s 1 -d 0 -p ack -e 40 -c 3 -i 12 -a 3 -x {5.0 0.0 -1 ------- null}
r -t 0.706264 -s 1 -d 0 -p ack -e 40 -c 3 -i 11 -a 3 -x {5.0 0.0 4 ------- null}
+ -t 0.706264 -s 0 -d 1 -p tcp -e 1040 -c 3 -i 16 -a 3 -x {0.0 5.0 9 ------- null}
+ -t 0.706264 -s 0 -d 1 -p tcp -e 1040 -c 3 -i 17 -a 3 -x {0.0 5.0 10 ------- null}
- -t 0.706264 -s 0 -d 1 -p tcp -e 1040 -c 3 -i 15 -a 3 -x {0.0 5.0 8 ------- null}
h -t 0.706264 -s 0 -d 1 -p tcp -e 1040 -c 3 -i 15 -a 3 -x {0.0 5.0 -1 ------- null}
r -t 0.712584 -s 6 -d 1 -p ack -e 40 -c 3 -i 13 -a 3 -x {5.0 0.0 6 ------- null}
+ -t 0.712584 -s 1 -d 0 -p ack -e 40 -c 3 -i 13 -a 3 -x {5.0 0.0 6 ------- null}
- -t 0.712584 -s 1 -d 0 -p ack -e 40 -c 3 -i 13 -a 3 -x {5.0 0.0 6 ------- null}
h -t 0.712584 -s 1 -d 0 -p ack -e 40 -c 3 -i 13 -a 3 -x {5.0 0.0 -1 ------- null}
r -t 0.714584 -s 1 -d 0 -p ack -e 40 -c 3 -i 12 -a 3 -x {5.0 0.0 5 ------- null}
+ -t 0.714584 -s 0 -d 1 -p tcp -e 1040 -c 3 -i 18 -a 3 -x {0.0 5.0 11 ------- null}
+ -t 0.714584 -s 0 -d 1 -p tcp -e 1040 -c 3 -i 19 -a 3 -x {0.0 5.0 12 ------- null}
- -t 0.714584 -s 0 -d 1 -p tcp -e 1040 -c 3 -i 16 -a 3 -x {0.0 5.0 9 ------- null}
h -t 0.714584 -s 0 -d 1 -p tcp -e 1040 -c 3 -i 16 -a 3 -x {0.0 5.0 -1 ------- null}
r -t 0.716264 -s 0 -d 1 -p tcp -e 1040 -c 3 -i 14 -a 3 -x {0.0 5.0 7 ------- null}
h -t 0.716264 -s 1 -d 6 -p tcp -e 1040 -c 3 -i 14 -a 3 -x {0.0 5.0 7 ------- null}
r -t 0.722904 -s 1 -d 0 -p ack -e 40 -c 3 -i 13 -a 3 -x {5.0 0.0 6 ------- null}
+ -t 0.722904 -s 0 -d 1 -p tcp -e 1040 -c 3 -i 20 -a 3 -x {0.0 5.0 13 ------- null}
+ -t 0.722904 -s 0 -d 1 -p tcp -e 1040 -c 3 -i 21 -a 3 -x {0.0 5.0 14 ------- null}
- -t 0.722904 -s 0 -d 1 -p tcp -e 1040 -c 3 -i 17 -a 3 -x {0.0 5.0 10 ------- null}
h -t 0.722904 -s 0 -d 1 -p tcp -e 1040 -c 3 -i 17 -a 3 -x {0.0 5.0 -1 ------- null}
r -t 0.724584 -s 0 -d 1 -p tcp -e 1040 -c 3 -i 15 -a 3 -x {0.0 5.0 8 ------- null}
h -t 0.724584 -s 1 -d 6 -p tcp -e 1040 -c 3 -i 15 -a 3 -x {0.0 5.0 8 ------- null}
+ -t 0.726264 -s 1 -d 6 -p tcp -e 1040 -c 3 -i 14 -a 3 -x {0.0 5.0 7 ------- null}
- -t 0.726264 -s 1 -d 6 -p tcp -e 1040 -c 3 -i 14 -a 3 -x {0.0 5.0 7 ------- null}
h -t 0.726264 -s 1 -d 6 -p tcp -e 1040 -c 3 -i 14 -a 3 -x {0.0 5.0 -1 ------- null}
d -t 0.726268 -s 4 -d 6 -p tcp -e 1040 -c 3 -i 14 -a 3 -x {0.0 5.0 7 ------- null}
d -t 0.726268 -s 3 -d 6 -p tcp -e 1040 -c 3 -i 14 -a 3 -x {0.0 5.0 7 ------- null}
d -t 0.726268 -s 2 -d 6 -p tcp -e 1040 -c 3 -i 14 -a 3 -x {0.0 5.0 7 ------- null}
- -t 0.731224 -s 0 -d 1 -p tcp -e 1040 -c 3 -i 18 -a 3 -x {0.0 5.0 11 ------- null}
h -t 0.731224 -s 0 -d 1 -p tcp -e 1040 -c 3 -i 18 -a 3 -x {0.0 5.0 -1 ------- null}
r -t 0.732904 -s 0 -d 1 -p tcp -e 1040 -c 3 -i 16 -a 3 -x {0.0 5.0 9 ------- null}
h -t 0.732904 -s 1 -d 6 -p tcp -e 1040 -c 3 -i 16 -a 3 -x {0.0 5.0 9 ------- null}
+ -t 0.734584 -s 1 -d 6 -p tcp -e 1040 -c 3 -i 15 -a 3 -x {0.0 5.0 8 ------- null}
- -t 0.734584 -s 1 -d 6 -p tcp -e 1040 -c 3 -i 15 -a 3 -x {0.0 5.0 8 ------- null}
h -t 0.734584 -s 1 -d 6 -p tcp -e 1040 -c 3 -i 15 -a 3 -x {0.0 5.0 -1 ------- null}
d -t 0.734588 -s 4 -d 6 -p tcp -e 1040 -c 3 -i 15 -a 3 -x {0.0 5.0 8 ------- null}
d -t 0.734588 -s 3 -d 6 -p tcp -e 1040 -c 3 -i 15 -a 3 -x {0.0 5.0 8 ------- null}
d -t 0.734588 -s 2 -d 6 -p tcp -e 1040 -c 3 -i 15 -a 3 -x {0.0 5.0 8 ------- null}
r -t 0.736268 -s 6 -d 5 -p tcp -e 1040 -c 3 -i 14 -a 3 -x {0.0 5.0 7 ------- null}
h -t 0.736268 -s 5 -d 6 -p ack -e 40 -c 3 -i 22 -a 3 -x {5.0 0.0 7 ------- null}
- -t 0.739544 -s 0 -d 1 -p tcp -e 1040 -c 3 -i 19 -a 3 -x {0.0 5.0 12 ------- null}
h -t 0.739544 -s 0 -d 1 -p tcp -e 1040 -c 3 -i 19 -a 3 -x {0.0 5.0 -1 ------- null}
r -t 0.741224 -s 0 -d 1 -p tcp -e 1040 -c 3 -i 17 -a 3 -x {0.0 5.0 10 ------- null}
h -t 0.741224 -s 1 -d 6 -p tcp -e 1040 -c 3 -i 17 -a 3 -x {0.0 5.0 10 ------- null}
+ -t 0.742904 -s 1 -d 6 -p tcp -e 1040 -c 3 -i 16 -a 3 -x {0.0 5.0 9 ------- null}
- -t 0.742904 -s 1 -d 6 -p tcp -e 1040 -c 3 -i 16 -a 3 -x {0.0 5.0 9 ------- null}
h -t 0.742904 -s 1 -d 6 -p tcp -e 1040 -c 3 -i 16 -a 3 -x {0.0 5.0 -1 ------- null}
d -t 0.742908 -s 4 -d 6 -p tcp -e 1040 -c 3 -i 16 -a 3 -x {0.0 5.0 9 ------- null}
d -t 0.742908 -s 3 -d 6 -p tcp -e 1040 -c 3 -i 16 -a 3 -x {0.0 5.0 9 ------- null}
d -t 0.742908 -s 2 -d 6 -p tcp -e 1040 -c 3 -i 16 -a 3 -x {0.0 5.0 9 ------- null}
r -t 0.744588 -s 6 -d 5 -p tcp -e 1040 -c 3 -i 15 -a 3 -x {0.0 5.0 8 ------- null}
h -t 0.744588 -s 5 -d 6 -p ack -e 40 -c 3 -i 23 -a 3 -x {5.0 0.0 8 ------- null}
+ -t 0.746268 -s 5 -d 6 -p ack -e 40 -c 3 -i 22 -a 3 -x {5.0 0.0 7 ------- null}
- -t 0.746268 -s 5 -d 6 -p ack -e 40 -c 3 -i 22 -a 3 -x {5.0 0.0 7 ------- null}
h -t 0.746268 -s 5 -d 6 -p ack -e 40 -c 3 -i 22 -a 3 -x {5.0 0.0 -1 ------- null}
d -t 0.746272 -s 4 -d 6 -p ack -e 40 -c 3 -i 22 -a 3 -x {5.0 0.0 7 ------- null}
d -t 0.746272 -s 3 -d 6 -p ack -e 40 -c 3 -i 22 -a 3 -x {5.0 0.0 7 ------- null}
d -t 0.746272 -s 2 -d 6 -p ack -e 40 -c 3 -i 22 -a 3 -x {5.0 0.0 7 ------- null}
- -t 0.747864 -s 0 -d 1 -p tcp -e 1040 -c 3 -i 20 -a 3 -x {0.0 5.0 13 ------- null}
h -t 0.747864 -s 0 -d 1 -p tcp -e 1040 -c 3 -i 20 -a 3 -x {0.0 5.0 -1 ------- null}
r -t 0.749544 -s 0 -d 1 -p tcp -e 1040 -c 3 -i 18 -a 3 -x {0.0 5.0 11 ------- null}
h -t 0.749544 -s 1 -d 6 -p tcp -e 1040 -c 3 -i 18 -a 3 -x {0.0 5.0 11 ------- null}
+ -t 0.751224 -s 1 -d 6 -p tcp -e 1040 -c 3 -i 17 -a 3 -x {0.0 5.0 10 ------- null}
- -t 0.751224 -s 1 -d 6 -p tcp -e 1040 -c 3 -i 17 -a 3 -x {0.0 5.0 10 ------- null}
h -t 0.751224 -s 1 -d 6 -p tcp -e 1040 -c 3 -i 17 -a 3 -x {0.0 5.0 -1 ------- null}
d -t 0.751228 -s 4 -d 6 -p tcp -e 1040 -c 3 -i 17 -a 3 -x {0.0 5.0 10 ------- null}
d -t 0.751228 -s 3 -d 6 -p tcp -e 1040 -c 3 -i 17 -a 3 -x {0.0 5.0 10 ------- null}
d -t 0.751228 -s 2 -d 6 -p tcp -e 1040 -c 3 -i 17 -a 3 -x {0.0 5.0 10 ------- null}
r -t 0.752908 -s 6 -d 5 -p tcp -e 1040 -c 3 -i 16 -a 3 -x {0.0 5.0 9 ------- null}
h -t 0.752908 -s 5 -d 6 -p ack -e 40 -c 3 -i 24 -a 3 -x {5.0 0.0 9 ------- null}
+ -t 0.754588 -s 5 -d 6 -p ack -e 40 -c 3 -i 23 -a 3 -x {5.0 0.0 8 ------- null}
- -t 0.754588 -s 5 -d 6 -p ack -e 40 -c 3 -i 23 -a 3 -x {5.0 0.0 8 ------- null}
h -t 0.754588 -s 5 -d 6 -p ack -e 40 -c 3 -i 23 -a 3 -x {5.0 0.0 -1 ------- null}
d -t 0.754592 -s 4 -d 6 -p ack -e 40 -c 3 -i 23 -a 3 -x {5.0 0.0 8 ------- null}
d -t 0.754592 -s 3 -d 6 -p ack -e 40 -c 3 -i 23 -a 3 -x {5.0 0.0 8 ------- null}
d -t 0.754592 -s 2 -d 6 -p ack -e 40 -c 3 -i 23 -a 3 -x {5.0 0.0 8 ------- null}
- -t 0.756184 -s 0 -d 1 -p tcp -e 1040 -c 3 -i 21 -a 3 -x {0.0 5.0 14 ------- null}
h -t 0.756184 -s 0 -d 1 -p tcp -e 1040 -c 3 -i 21 -a 3 -x {0.0 5.0 -1 ------- null}
r -t 0.756272 -s 6 -d 1 -p ack -e 40 -c 3 -i 22 -a 3 -x {5.0 0.0 7 ------- null}
+ -t 0.756272 -s 1 -d 0 -p ack -e 40 -c 3 -i 22 -a 3 -x {5.0 0.0 7 ------- null}
- -t 0.756272 -s 1 -d 0 -p ack -e 40 -c 3 -i 22 -a 3 -x {5.0 0.0 7 ------- null}
h -t 0.756272 -s 1 -d 0 -p ack -e 40 -c 3 -i 22 -a 3 -x {5.0 0.0 -1 ------- null}
r -t 0.757864 -s 0 -d 1 -p tcp -e 1040 -c 3 -i 19 -a 3 -x {0.0 5.0 12 ------- null}
h -t 0.757864 -s 1 -d 6 -p tcp -e 1040 -c 3 -i 19 -a 3 -x {0.0 5.0 12 ------- null}
+ -t 0.759544 -s 1 -d 6 -p tcp -e 1040 -c 3 -i 18 -a 3 -x {0.0 5.0 11 ------- null}
- -t 0.759544 -s 1 -d 6 -p tcp -e 1040 -c 3 -i 18 -a 3 -x {0.0 5.0 11 ------- null}
h -t 0.759544 -s 1 -d 6 -p tcp -e 1040 -c 3 -i 18 -a 3 -x {0.0 5.0 -1 ------- null}
d -t 0.759548 -s 4 -d 6 -p tcp -e 1040 -c 3 -i 18 -a 3 -x {0.0 5.0 11 ------- null}
d -t 0.759548 -s 3 -d 6 -p tcp -e 1040 -c 3 -i 18 -a 3 -x {0.0 5.0 11 ------- null}
d -t 0.759548 -s 2 -d 6 -p tcp -e 1040 -c 3 -i 18 -a 3 -x {0.0 5.0 11 ------- null}
r -t 0.761228 -s 6 -d 5 -p tcp -e 1040 -c 3 -i 17 -a 3 -x {0.0 5.0 10 ------- null}
h -t 0.761228 -s 5 -d 6 -p ack -e 40 -c 3 -i 25 -a 3 -x {5.0 0.0 10 ------- null}
+ -t 0.762908 -s 5 -d 6 -p ack -e 40 -c 3 -i 24 -a 3 -x {5.0 0.0 9 ------- null}
- -t 0.762908 -s 5 -d 6 -p ack -e 40 -c 3 -i 24 -a 3 -x {5.0 0.0 9 ------- null}
h -t 0.762908 -s 5 -d 6 -p ack -e 40 -c 3 -i 24 -a 3 -x {5.0 0.0 -1 ------- null}
d -t 0.762912 -s 4 -d 6 -p ack -e 40 -c 3 -i 24 -a 3 -x {5.0 0.0 9 ------- null}
d -t 0.762912 -s 3 -d 6 -p ack -e 40 -c 3 -i 24 -a 3 -x {5.0 0.0 9 ------- null}
d -t 0.762912 -s 2 -d 6 -p ack -e 40 -c 3 -i 24 -a 3 -x {5.0 0.0 9 ------- null}
r -t 0.764592 -s 6 -d 1 -p ack -e 40 -c 3 -i 23 -a 3 -x {5.0 0.0 8 ------- null}
+ -t 0.764592 -s 1 -d 0 -p ack -e 40 -c 3 -i 23 -a 3 -x {5.0 0.0 8 ------- null}
- -t 0.764592 -s 1 -d 0 -p ack -e 40 -c 3 -i 23 -a 3 -x {5.0 0.0 8 ------- null}
h -t 0.764592 -s 1 -d 0 -p ack -e 40 -c 3 -i 23 -a 3 -x {5.0 0.0 -1 ------- null}
r -t 0.766184 -s 0 -d 1 -p tcp -e 1040 -c 3 -i 20 -a 3 -x {0.0 5.0 13 ------- null}
h -t 0.766184 -s 1 -d 6 -p tcp -e 1040 -c 3 -i 20 -a 3 -x {0.0 5.0 13 ------- null}
r -t 0.766592 -s 1 -d 0 -p ack -e 40 -c 3 -i 22 -a 3 -x {5.0 0.0 7 ------- null}
+ -t 0.766592 -s 0 -d 1 -p tcp -e 1040 -c 3 -i 26 -a 3 -x {0.0 5.0 15 ------- null}
- -t 0.766592 -s 0 -d 1 -p tcp -e 1040 -c 3 -i 26 -a 3 -x {0.0 5.0 15 ------- null}
h -t 0.766592 -s 0 -d 1 -p tcp -e 1040 -c 3 -i 26 -a 3 -x {0.0 5.0 -1 ------- null}
+ -t 0.766592 -s 0 -d 1 -p tcp -e 1040 -c 3 -i 27 -a 3 -x {0.0 5.0 16 ------- null}
+ -t 0.767864 -s 1 -d 6 -p tcp -e 1040 -c 3 -i 19 -a 3 -x {0.0 5.0 12 ------- null}
- -t 0.767864 -s 1 -d 6 -p tcp -e 1040 -c 3 -i 19 -a 3 -x {0.0 5.0 12 ------- null}
h -t 0.767864 -s 1 -d 6 -p tcp -e 1040 -c 3 -i 19 -a 3 -x {0.0 5.0 -1 ------- null}
d -t 0.767868 -s 4 -d 6 -p tcp -e 1040 -c 3 -i 19 -a 3 -x {0.0 5.0 12 ------- null}
d -t 0.767868 -s 3 -d 6 -p tcp -e 1040 -c 3 -i 19 -a 3 -x {0.0 5.0 12 ------- null}
d -t 0.767868 -s 2 -d 6 -p tcp -e 1040 -c 3 -i 19 -a 3 -x {0.0 5.0 12 ------- null}
r -t 0.769548 -s 6 -d 5 -p tcp -e 1040 -c 3 -i 18 -a 3 -x {0.0 5.0 11 ------- null}
h -t 0.769548 -s 5 -d 6 -p ack -e 40 -c 3 -i 28 -a 3 -x {5.0 0.0 11 ------- null}
+ -t 0.771228 -s 5 -d 6 -p ack -e 40 -c 3 -i 25 -a 3 -x {5.0 0.0 10 ------- null}
- -t 0.771228 -s 5 -d 6 -p ack -e 40 -c 3 -i 25 -a 3 -x {5.0 0.0 10 ------- null}
h -t 0.771228 -s 5 -d 6 -p ack -e 40 -c 3 -i 25 -a 3 -x {5.0 0.0 -1 ------- null}
d -t 0.771232 -s 4 -d 6 -p ack -e 40 -c 3 -i 25 -a 3 -x {5.0 0.0 10 ------- null}
d -t 0.771232 -s 3 -d 6 -p ack -e 40 -c 3 -i 25 -a 3 -x {5.0 0.0 10 ------- null}
d -t 0.771232 -s 2 -d 6 -p ack -e 40 -c 3 -i 25 -a 3 -x {5.0 0.0 10 ------- null}
r -t 0.772912 -s 6 -d 1 -p ack -e 40 -c 3 -i 24 -a 3 -x {5.0 0.0 9 ------- null}
+ -t 0.772912 -s 1 -d 0 -p ack -e 40 -c 3 -i 24 -a 3 -x {5.0 0.0 9 ------- null}
- -t 0.772912 -s 1 -d 0 -p ack -e 40 -c 3 -i 24 -a 3 -x {5.0 0.0 9 ------- null}
h -t 0.772912 -s 1 -d 0 -p ack -e 40 -c 3 -i 24 -a 3 -x {5.0 0.0 -1 ------- null}
r -t 0.774504 -s 0 -d 1 -p tcp -e 1040 -c 3 -i 21 -a 3 -x {0.0 5.0 14 ------- null}
h -t 0.774504 -s 1 -d 6 -p tcp -e 1040 -c 3 -i 21 -a 3 -x {0.0 5.0 14 ------- null}
r -t 0.774912 -s 1 -d 0 -p ack -e 40 -c 3 -i 23 -a 3 -x {5.0 0.0 8 ------- null}
+ -t 0.774912 -s 0 -d 1 -p tcp -e 1040 -c 3 -i 29 -a 3 -x {0.0 5.0 17 ------- null}
+ -t 0.774912 -s 0 -d 1 -p tcp -e 1040 -c 3 -i 30 -a 3 -x {0.0 5.0 18 ------- null}
- -t 0.774912 -s 0 -d 1 -p tcp -e 1040 -c 3 -i 27 -a 3 -x {0.0 5.0 16 ------- null}
h -t 0.774912 -s 0 -d 1 -p tcp -e 1040 -c 3 -i 27 -a 3 -x {0.0 5.0 -1 ------- null}
+ -t 0.776184 -s 1 -d 6 -p tcp -e 1040 -c 3 -i 20 -a 3 -x {0.0 5.0 13 ------- null}
- -t 0.776184 -s 1 -d 6 -p tcp -e 1040 -c 3 -i 20 -a 3 -x {0.0 5.0 13 ------- null}
h -t 0.776184 -s 1 -d 6 -p tcp -e 1040 -c 3 -i 20 -a 3 -x {0.0 5.0 -1 ------- null}
d -t 0.776188 -s 4 -d 6 -p tcp -e 1040 -c 3 -i 20 -a 3 -x {0.0 5.0 13 ------- null}
d -t 0.776188 -s 3 -d 6 -p tcp -e 1040 -c 3 -i 20 -a 3 -x {0.0 5.0 13 ------- null}
d -t 0.776188 -s 2 -d 6 -p tcp -e 1040 -c 3 -i 20 -a 3 -x {0.0 5.0 13 ------- null}
r -t 0.777868 -s 6 -d 5 -p tcp -e 1040 -c 3 -i 19 -a 3 -x {0.0 5.0 12 ------- null}
h -t 0.777868 -s 5 -d 6 -p ack -e 40 -c 3 -i 31 -a 3 -x {5.0 0.0 12 ------- null}
+ -t 0.779548 -s 5 -d 6 -p ack -e 40 -c 3 -i 28 -a 3 -x {5.0 0.0 11 ------- null}
- -t 0.779548 -s 5 -d 6 -p ack -e 40 -c 3 -i 28 -a 3 -x {5.0 0.0 11 ------- null}
h -t 0.779548 -s 5 -d 6 -p ack -e 40 -c 3 -i 28 -a 3 -x {5.0 0.0 -1 ------- null}
d -t 0.779552 -s 4 -d 6 -p ack -e 40 -c 3 -i 28 -a 3 -x {5.0 0.0 11 ------- null}
d -t 0.779552 -s 3 -d 6 -p ack -e 40 -c 3 -i 28 -a 3 -x {5.0 0.0 11 ------- null}
d -t 0.779552 -s 2 -d 6 -p ack -e 40 -c 3 -i 28 -a 3 -x {5.0 0.0 11 ------- null}
r -t 0.781232 -s 6 -d 1 -p ack -e 40 -c 3 -i 25 -a 3 -x {5.0 0.0 10 ------- null}
+ -t 0.781232 -s 1 -d 0 -p ack -e 40 -c 3 -i 25 -a 3 -x {5.0 0.0 10 ------- null}
- -t 0.781232 -s 1 -d 0 -p ack -e 40 -c 3 -i 25 -a 3 -x {5.0 0.0 10 ------- null}
h -t 0.781232 -s 1 -d 0 -p ack -e 40 -c 3 -i 25 -a 3 -x {5.0 0.0 -1 ------- null}
r -t 0.783232 -s 1 -d 0 -p ack -e 40 -c 3 -i 24 -a 3 -x {5.0 0.0 9 ------- null}
+ -t 0.783232 -s 0 -d 1 -p tcp -e 1040 -c 3 -i 32 -a 3 -x {0.0 5.0 19 ------- null}
+ -t 0.783232 -s 0 -d 1 -p tcp -e 1040 -c 3 -i 33 -a 3 -x {0.0 5.0 20 ------- null}
- -t 0.783232 -s 0 -d 1 -p tcp -e 1040 -c 3 -i 29 -a 3 -x {0.0 5.0 17 ------- null}
h -t 0.783232 -s 0 -d 1 -p tcp -e 1040 -c 3 -i 29 -a 3 -x {0.0 5.0 -1 ------- null}
+ -t 0.784504 -s 1 -d 6 -p tcp -e 1040 -c 3 -i 21 -a 3 -x {0.0 5.0 14 ------- null}
- -t 0.784504 -s 1 -d 6 -p tcp -e 1040 -c 3 -i 21 -a 3 -x {0.0 5.0 14 ------- null}
h -t 0.784504 -s 1 -d 6 -p tcp -e 1040 -c 3 -i 21 -a 3 -x {0.0 5.0 -1 ------- null}
d -t 0.784508 -s 4 -d 6 -p tcp -e 1040 -c 3 -i 21 -a 3 -x {0.0 5.0 14 ------- null}
d -t 0.784508 -s 3 -d 6 -p tcp -e 1040 -c 3 -i 21 -a 3 -x {0.0 5.0 14 ------- null}
d -t 0.784508 -s 2 -d 6 -p tcp -e 1040 -c 3 -i 21 -a 3 -x {0.0 5.0 14 ------- null}
r -t 0.784912 -s 0 -d 1 -p tcp -e 1040 -c 3 -i 26 -a 3 -x {0.0 5.0 15 ------- null}
h -t 0.784912 -s 1 -d 6 -p tcp -e 1040 -c 3 -i 26 -a 3 -x {0.0 5.0 15 ------- null}
r -t 0.786188 -s 6 -d 5 -p tcp -e 1040 -c 3 -i 20 -a 3 -x {0.0 5.0 13 ------- null}
h -t 0.786188 -s 5 -d 6 -p ack -e 40 -c 3 -i 34 -a 3 -x {5.0 0.0 13 ------- null}
+ -t 0.787868 -s 5 -d 6 -p ack -e 40 -c 3 -i 31 -a 3 -x {5.0 0.0 12 ------- null}
- -t 0.787868 -s 5 -d 6 -p ack -e 40 -c 3 -i 31 -a 3 -x {5.0 0.0 12 ------- null}
h -t 0.787868 -s 5 -d 6 -p ack -e 40 -c 3 -i 31 -a 3 -x {5.0 0.0 -1 ------- null}
d -t 0.787872 -s 4 -d 6 -p ack -e 40 -c 3 -i 31 -a 3 -x {5.0 0.0 12 ------- null}
d -t 0.787872 -s 3 -d 6 -p ack -e 40 -c 3 -i 31 -a 3 -x {5.0 0.0 12 ------- null}
d -t 0.787872 -s 2 -d 6 -p ack -e 40 -c 3 -i 31 -a 3 -x {5.0 0.0 12 ------- null}
r -t 0.789552 -s 6 -d 1 -p ack -e 40 -c 3 -i 28 -a 3 -x {5.0 0.0 11 ------- null}
+ -t 0.789552 -s 1 -d 0 -p ack -e 40 -c 3 -i 28 -a 3 -x {5.0 0.0 11 ------- null}
- -t 0.789552 -s 1 -d 0 -p ack -e 40 -c 3 -i 28 -a 3 -x {5.0 0.0 11 ------- null}
h -t 0.789552 -s 1 -d 0 -p ack -e 40 -c 3 -i 28 -a 3 -x {5.0 0.0 -1 ------- null}
r -t 0.791552 -s 1 -d 0 -p ack -e 40 -c 3 -i 25 -a 3 -x {5.0 0.0 10 ------- null}
+ -t 0.791552 -s 0 -d 1 -p tcp -e 1040 -c 3 -i 35 -a 3 -x {0.0 5.0 21 ------- null}
+ -t 0.791552 -s 0 -d 1 -p tcp -e 1040 -c 3 -i 36 -a 3 -x {0.0 5.0 22 ------- null}
- -t 0.791552 -s 0 -d 1 -p tcp -e 1040 -c 3 -i 30 -a 3 -x {0.0 5.0 18 ------- null}
h -t 0.791552 -s 0 -d 1 -p tcp -e 1040 -c 3 -i 30 -a 3 -x {0.0 5.0 -1 ------- null}
r -t 0.793232 -s 0 -d 1 -p tcp -e 1040 -c 3 -i 27 -a 3 -x {0.0 5.0 16 ------- null}
h -t 0.793232 -s 1 -d 6 -p tcp -e 1040 -c 3 -i 27 -a 3 -x {0.0 5.0 16 ------- null}
r -t 0.794508 -s 6 -d 5 -p tcp -e 1040 -c 3 -i 21 -a 3 -x {0.0 5.0 14 ------- null}
h -t 0.794508 -s 5 -d 6 -p ack -e 40 -c 3 -i 37 -a 3 -x {5.0 0.0 14 ------- null}
+ -t 0.794912 -s 1 -d 6 -p tcp -e 1040 -c 3 -i 26 -a 3 -x {0.0 5.0 15 ------- null}
- -t 0.794912 -s 1 -d 6 -p tcp -e 1040 -c 3 -i 26 -a 3 -x {0.0 5.0 15 ------- null}
h -t 0.794912 -s 1 -d 6 -p tcp -e 1040 -c 3 -i 26 -a 3 -x {0.0 5.0 -1 ------- null}
d -t 0.794916 -s 4 -d 6 -p tcp -e 1040 -c 3 -i 26 -a 3 -x {0.0 5.0 15 ------- null}
d -t 0.794916 -s 3 -d 6 -p tcp -e 1040 -c 3 -i 26 -a 3 -x {0.0 5.0 15 ------- null}